ITEM: TIMESTEP
860000
ITEM: NUMBER OF ATOMS
576
ITEM: BOX BOUNDS pp pp pp
-1.2000000000000000e+01 8.4000000000000000e+01
-1.2000000000000000e+01 3.6000000000000000e+01
-1.2000000000000000e+01 3.6000000000000000e+01
ITEM: ATOMS id type x y z vx vy vz 
563 1 10.0358 -10.1531 -8.60151 0.0154668 -0.00898094 0.00526426 
177 2 10.4715 -9.26548 -8.33879 -0.040248 0.0114621 -0.0101354 
552 1 10.8872 -11.1889 -8.45007 0.00203603 -0.0062091 0.0248697 
572 2 8.83126 -10.1481 -8.44457 -0.0197802 -0.0143425 -0.0579976 
374 1 -10.3039 -11.964 11.7441 0.0175308 -0.0235829 -0.00746379 
457 2 -1.64089 11.6584 6.50978 -0.0927113 0.0300357 0.0113918 
385 2 -8.31459 -10.0806 10.0361 0.00909565 -0.0268807 0.042875 
462 2 1.56934 2.93143 5.43206 0.0458192 -0.0944839 0.0344066 
450 1 1.49899 3.71266 4.58629 0.00678065 0.000589925 0.00151912 
461 2 -0.598248 6.50631 1.64703 0.0102158 0.0088775 0.0589245 
453 1 1.4533 4.37533 3.57914 0.0147857 -0.00487244 0.0177998 
465 2 1.96694 4.63911 1.62032 -0.0396521 -0.0221088 0.0195192 
443 1 1.70924 5.21383 2.45704 0.00126066 -0.00197566 -0.00628477 
441 1 -0.6415 6.60159 2.83923 -0.0216162 -0.0287031 0.00131405 
435 1 0.0774652 7.7048 3.53079 0.0111851 0.0222669 -0.0187382 
458 2 -2.56477 5.85283 4.05801 0.0607046 0.0475208 -0.113305 
449 1 -1.73885 6.63796 3.86496 -0.00495127 -0.0095057 -0.0155922 
433 1 -0.246635 8.61189 4.62486 -0.013927 -0.00198032 -0.0103483 
446 1 -2.5336 7.98776 3.88021 0.00173849 -0.00431781 0.0014349 
439 1 -1.56482 9.04264 4.46482 0.0149711 -0.0117189 -0.00355199 
442 1 2.81099 10.5295 5.2006 -0.00110958 0.0198425 0.00991252 
468 2 4.32641 6.44267 1.73462 0.0849033 0.0932376 0.0636046 
437 1 1.49738 7.42079 3.53764 0.0234065 0.00972137 -0.000202605 
434 1 0.555217 9.66355 5.13855 0.0185599 -0.0148835 -0.0178578 
436 1 1.85481 9.58472 4.50177 -0.0164916 0.00200596 0.0123409 
452 1 3.93768 10.372 4.50258 0.0148371 -0.0038669 0.0078066 
454 1 2.23797 6.518 2.43881 0.0137801 9.62449e-05 0.00584336 
455 1 4.22039 9.13798 3.37914 -0.01748 0.0327586 -0.0129378 
467 2 5.06911 9.2505 2.60793 -0.0440925 -0.0618072 -0.00948117 
456 1 3.65408 6.71469 2.6981 0.0027854 -0.00411927 -0.000882842 
444 1 3.5813 7.97194 3.47656 0.0225617 -0.032513 -0.0135995 
438 1 2.30147 8.2859 4.38806 0.00396881 -0.00618047 -0.00726843 
440 1 0.391985 10.6091 5.9049 0.026492 0.01374 0.00903391 
459 2 -3.00862 10.6874 5.38699 0.0518662 0.0486343 0.0293066 
445 1 -1.84519 10.0967 5.29407 0.030584 0.00247165 0.0327415 
447 1 -1.11201 10.9104 5.99196 -0.00122743 -0.0113275 -0.0209145 
451 1 2.38872 11.6238 6.29634 -0.0273603 -0.01815 -0.0211279 
448 1 1.20115 11.3682 6.76751 -0.0132942 -0.00586133 -0.0190693 
367 1 -11.5232 -11.4045 11.2137 -0.0243849 -0.0214092 -0.000414897 
386 2 -9.3981 -11.2586 11.4821 0.0167549 -0.0370032 -0.0484468 
387 2 -11.6725 -9.15392 11.7671 0.0232109 0.0680432 -0.00134403 
176 2 11.9067 8.92756 33.3217 -0.0135046 -0.0585211 0.0243608 
99 2 -11.5378 -5.8082 35.8081 0.133318 -0.00572766 0.155318 
140 2 0.619737 -3.96757 23.6985 -0.0483137 0.0763649 -0.103695 
270 1 -4.28788 -10.8159 24.7632 0.0315522 -0.00627727 0.00114009 
129 1 -3.96489 -4.36152 17.6344 -0.00560855 0.00768321 -0.0551232 
138 2 -3.83012 -4.11937 15.7244 -0.0853498 -0.0204375 -0.01369 
126 1 -3.36751 -3.60581 16.6459 -0.0107565 -0.00111342 0.0132001 
117 1 -2.47355 -2.57265 17.1376 0.00642822 -0.0119109 0.00534791 
125 1 -1.80472 -2.04056 15.935 -0.0198004 0.00167531 -0.00872632 
141 2 -4.92045 -4.95596 17.627 -0.079431 -0.0188976 0.0388359 
137 2 -1.49753 -1.90535 14.8319 -0.0463679 0.0102896 -0.17465 
122 1 -0.959312 -1.0045 16.2437 -0.00945004 0.00742989 0.0123991 
115 1 -0.478254 -0.813765 17.6919 -0.0139042 -0.016051 0.0193528 
134 2 -1.21061 -0.0712472 15.289 -0.00998207 0.0961338 0.0423572 
277 2 -10.7138 -10.8678 25.0561 0.0226833 -0.0484813 0.00806763 
265 1 -10.1336 -11.5001 24.4503 0.00448651 0.00936858 0.000401577 
142 2 -5.14423 -5.37912 19.9338 0.0133312 -0.109204 -0.0925211 
143 2 -2.67113 -3.77675 23.9794 -0.0560082 0.0135023 0.0358921 
130 1 -4.39862 -4.61931 20.226 0.00900423 -0.0248193 0.0137662 
132 1 -3.98572 -4.07074 21.5467 0.000125961 -0.0156972 0.00530371 
131 1 -1.93822 -3.60484 23.0517 0.0131489 0.0106721 -0.0116352 
120 1 -2.59709 -3.48903 21.8273 -0.00657335 0.0140491 -0.00236944 
114 1 -1.85183 -3.30781 20.7186 -0.0442837 0.00109568 0.030085 
113 1 -2.77188 -3.10387 19.6256 -0.0100891 0.0121878 0.0106184 
119 1 -3.72928 -4.01447 18.996 -0.010402 0.0143967 0.00633046 
111 1 -2.08222 -2.7382 18.5252 -0.0328273 0.020025 -0.0145588 
128 1 -0.512398 -3.56042 23.1476 0.00279461 -0.00683614 -0.00490584 
118 1 0.0390653 -2.9111 22.2142 0.00938098 0.017144 0.0162014 
112 1 -0.843924 -2.44429 20.9846 0.0134454 0.00957265 0.0145038 
110 1 -0.0781401 -1.91015 19.8447 0.0111651 0.0271164 -0.00315202 
109 1 -0.887154 -1.73829 18.5921 -0.013119 -0.0214706 -0.0233705 
116 1 1.00493 -0.902254 20.1315 -0.0245847 0.0202232 -0.027257 
124 1 1.7249 -1.1563 21.4214 0.0107621 -0.00917564 0.0184153 
123 1 1.52377 -0.293742 18.8404 -0.00497059 -0.0205132 -0.0098518 
127 1 1.48755 -2.49614 21.8374 -0.0309756 -0.00120763 -0.00361245 
496 2 2.49447 -0.502547 21.869 -0.045787 -0.0353833 0.0585156 
139 2 1.40048 0.488461 16.8411 -0.000685001 -0.113288 -0.0713215 
121 1 0.811017 0.0426395 17.6422 -0.00622063 0.000149681 -0.0223646 
259 1 -8.69445 -11.4625 24.4617 0.0220494 0.00392869 0.019253 
281 2 -8.67373 -9.54068 25.3519 -0.107843 0.105985 -0.0351048 
266 1 -7.97836 -10.3383 25.1534 0.00219283 0.0102413 0.00435697 
269 1 -6.72376 -9.82451 24.6373 0.00741158 0.00638812 0.000917553 
261 1 -5.78108 -11.0894 24.6665 -0.00548142 0.0129502 0.00517069 
285 2 -4.02502 -9.7657 25.1706 0.0532472 -0.0158843 -0.0236411 
539 2 9.43623 11.2424 12.1715 -0.0472539 -0.0634064 0.00491174 
561 1 10.7424 28.6416 -10.3635 -0.00360162 0.00226177 -0.0144475 
369 1 -11.2471 33.8567 11.9651 -0.011691 0.0234407 0.00294358 
560 1 11.3224 35.5426 -8.4494 -0.0178623 0.00639725 0.00265585 
543 1 11.6256 30.8772 -10.5064 0.00125431 -0.000626809 0.0279056 
551 1 10.7206 28.9271 -8.85104 -0.00539058 0.00179061 -0.0138624 
573 2 10.6683 28.2771 -7.93999 0.0323918 0.00850713 -0.0717861 
564 1 10.713 32.2134 -7.09183 0.00321854 0.0233612 -0.00173689 
545 1 11.3688 30.3035 -9.10113 0.0229658 -0.00797396 -0.00165699 
562 1 10.1867 32.3216 -5.74188 -0.00458437 -0.0243584 0.0169441 
546 1 11.1879 31.7398 -8.28556 0.0291565 -0.00190859 0.00449373 
421 2 9.91819 33.4332 -5.45182 -0.00767695 0.0297709 -0.0525284 
569 2 10.6919 30.9341 -11.24 -0.00794469 0.104676 0.0162334 
576 2 10.3901 31.5349 -4.92623 -0.00391728 0.0292278 -0.0803507 
558 1 11.2472 28.7148 -11.6489 -0.0150658 -0.0138864 0.00520629 
377 1 -9.87826 34.5764 11.767 -0.0216842 -0.00175489 -0.00275395 
179 2 9.35258 12.1326 11.9461 0.0967616 -0.0462271 0.0373118 
463 2 3.21595 12.2243 6.76736 0.0176609 -0.00594772 -0.0754887 
544 1 11.8418 32.8068 -9.03989 0.0136783 0.00498967 0.0242231 
460 2 0.83787 12.2325 7.62328 0.0339352 0.0437081 -0.00658024 
237 1 3.15791 18.241 18.2845 -0.0239133 -0.00818951 -0.00156403 
249 2 2.52996 17.6219 17.4832 0.0783672 -0.00494726 0.0231102 
357 2 4.09282 18.7805 16.1948 0.0988059 0.0701243 0.0562979 
227 1 3.79289 19.5035 17.9866 0.00715023 0.019144 -0.00253841 
238 1 4.26182 19.6784 16.5661 -0.0219478 0.0384438 0.00717478 
252 2 5.21302 21.0038 15.2701 -0.0361857 -0.0185771 0.0951337 
240 1 5.04104 20.8624 16.3425 -0.00291692 0.00755464 -0.00206655 
236 1 6.92833 22.4884 17.0541 -0.0186435 0.0165469 0.0040993 
228 1 5.61647 21.7775 17.2919 -0.00470394 0.0222138 -0.01117 
273 1 -3.49352 35.9619 24.4123 0.0025967 0.0149789 -0.00208042 
378 1 -11.4796 32.6156 12.3974 -0.0202484 -0.00377559 0.0182384 
495 2 -10.7343 31.9026 12.6655 -0.00654205 0.0401055 -0.176789 
314 2 1.89291 18.6453 35.2428 0.0133365 0.0076956 0.113042 
234 1 2.95414 17.803 19.6852 -0.00103525 -0.00869301 0.0157515 
246 2 2.12497 17.219 19.9252 -0.0027931 -0.0630426 -0.0443537 
245 2 3.78279 16.9618 22.0712 -0.0420509 -0.0976925 0.0356827 
225 1 3.65942 18.4223 20.763 0.0034074 0.0183052 0.0280092 
233 1 3.29476 18.087 22.0369 0.00750751 -0.00101918 0.018827 
221 1 4.61117 20.1478 18.9124 0.0128024 0.00704736 -0.0200257 
219 1 4.28015 19.9612 20.4428 -0.0171791 -0.0117779 0.00718394 
230 1 3.80091 19.1882 22.9983 0.00577753 0.00825836 -0.0182539 
242 2 3.98895 18.512 23.855 -0.0274357 0.151335 0.0276946 
223 1 3.93935 20.6605 22.7381 0.0286839 -0.0146706 0.00357593 
217 1 4.44057 20.872 21.3355 0.020128 0.0214028 -0.01173 
229 1 4.60552 21.744 23.4879 0.0218124 0.00825605 0.0112414 
218 1 5.52937 21.8698 20.9361 0.0177297 -0.00701454 0.00352872 
224 1 6.21671 22.6477 21.8227 -0.014439 0.0174975 -0.00158246 
231 1 5.70554 22.6328 23.1707 -0.00606608 0.0120992 -0.0124592 
220 1 5.82828 22.0542 19.6582 -0.0120432 0.0214618 0.0195359 
222 1 5.16192 21.2908 18.5806 -0.0130535 -0.0216858 0.00606846 
232 1 6.99641 23.8699 21.5554 0.0104432 0.00784755 -0.00356434 
244 2 7.07016 24.4549 22.3755 -0.0117921 -0.0178092 0.000472629 
235 1 7.53556 23.9367 20.3134 0.00213575 -0.00753659 -0.00473244 
226 1 7.12259 22.8847 19.353 -0.00408396 -0.0226569 -0.000362267 
251 2 8.8766 23.0294 18.5285 0.0353758 0.021321 -0.0243357 
239 1 7.93186 22.5054 18.1207 -0.013873 -0.00463766 -0.00746171 
247 2 8.40471 24.5938 20.0615 0.00259891 -0.0297067 -0.0248264 
279 2 -11.428 34.4799 24.6712 0.01657 -0.0777438 -0.0782773 
267 1 -10.3825 34.9762 24.5057 0.0121817 0.00495714 0.020215 
260 1 -9.53201 34.0778 23.9988 -0.00778519 -0.00541805 0.00412663 
254 1 -7.99525 34.5028 23.4862 -0.0304025 -0.012974 0.0105335 
256 1 -7.37941 33.5329 22.9018 -0.029113 0.0044346 -0.0195453 
268 1 -10.3787 33.021 23.4478 0.0244099 -0.0129858 0.00796442 
280 2 -10.2545 31.1936 22.8194 0.000949196 0.0550541 0.00992954 
271 1 -9.52531 32.0457 23.0364 -0.0118717 0.0107151 0.00491704 
262 1 -8.05898 32.2642 22.6456 -0.0150242 -0.000246755 0.0107149 
272 1 -7.1882 31.1985 22.301 -0.00973959 -0.0090197 0.00474556 
322 2 -11.2147 28.154 19.3836 -0.00596141 -0.0108094 -0.0963657 
275 1 -5.7898 31.5308 22.215 0.0165016 0.00907005 -0.00590248 
264 1 -5.04909 32.5032 22.5783 0.00386984 0.00767061 -0.0352004 
258 1 -5.90494 33.6286 22.9585 -0.0135952 0.010925 -0.00525507 
241 2 3.70538 21.8801 24.0021 0.0174612 0.0308307 0.00338387 
243 2 6.09128 22.773 24.1781 0.028928 0.0510921 0.0338724 
253 1 -7.57503 35.7029 23.8054 0.00226906 -0.0130588 -0.0128044 
255 1 -6.13546 35.904 23.7694 -0.00216445 -0.0111414 -0.023482 
257 1 -5.30454 34.764 23.3426 0.0231476 -0.0453672 0.00252018 
286 2 -2.08092 33.5628 23.8535 0.0705312 -0.0178037 -0.150939 
263 1 -3.8993 34.7181 23.8558 -0.023154 -0.00538169 0.00762088 
274 1 -3.29246 33.3004 23.9283 -0.025716 -0.000207998 -0.0541695 
288 2 -3.33249 31.0973 22.339 0.0253835 0.0827031 0.108374 
276 1 -3.56727 32.4611 22.7909 0.00174411 0.0161313 0.0223737 
504 2 4.91889 30.1018 22.269 0.0518591 -0.0306527 -0.0853015 
71 2 5.08928 29.287 22.6696 -0.0810229 -0.0248252 0.00268654 
537 2 -10.5447 23.0023 18.2272 0.0221285 0.00941909 0.0495334 
283 2 -11.5433 27.2971 31.3884 -0.00318855 0.0457123 -0.0390099 
540 2 -10.0782 22.4676 18.364 0.0885183 0.0159542 0.00939897 
278 2 -11.3374 26.7205 31.92 0.0614865 0.070965 0.0142383 
575 2 -2.26883 35.7262 24.1179 -0.032244 -0.00214307 -0.0122611 
389 2 -9.30262 34.1578 12.4782 -0.0450496 0.0471536 0.00979402 
93 1 18.4988 3.92195 -10.6564 -0.0216001 0.0149504 0.0286253 
102 2 18.6452 5.06109 -8.72016 -0.0723771 -0.0195765 0.0415691 
90 1 18.2792 4.87308 -9.85125 -0.00662142 -0.0088629 0.0084876 
86 1 15.8299 7.68437 -10.7106 -0.00457573 -0.00165828 -0.0139426 
89 1 16.2123 6.61278 -9.88191 -0.00493972 -0.0168628 -0.0137008 
418 1 32.373 8.14904 0.969935 -0.0153171 0.0187583 -0.00384248 
81 1 17.1858 5.80536 -10.6314 -0.00924161 -0.0117785 0.0313445 
101 2 16.0613 6.47573 -8.80275 0.0712436 -0.0783886 -0.0337035 
250 2 33.3644 3.46323 -0.0300618 -0.0630446 0.12732 -0.0301503 
399 1 35.1112 3.15392 1.08227 -0.0109058 -0.00903443 0.0120308 
407 1 33.8507 3.64196 0.82921 0.00125342 0.00467237 -0.00934327 
417 1 33.4056 4.9115 1.74792 0.0171044 -0.0206795 0.0226709 
429 2 33.7771 5.33232 2.662 0.0382347 -0.0470789 0.0476955 
136 2 31.1234 11.4202 1.5623 -0.0527783 0.0239732 0.0380827 
405 1 32.4598 6.81709 0.945088 0.0122892 -0.0258006 -0.00997585 
420 1 30.7392 10.2861 1.31619 0.0192052 0.0159128 0.00170842 
430 2 29.755 10.3094 1.74245 0.120151 0.0160128 -0.0792961 
408 1 31.5443 9.24754 1.08711 -0.0209624 0.00898091 0.0106573 
414 1 32.6577 5.67424 1.14813 -0.00865755 -0.011113 -0.0120604 
79 1 15.7996 8.07917 -11.9845 -0.00478301 -0.0291302 0.00274381 
75 1 17.3945 5.97646 -11.9963 0.0419758 0.00482736 -0.00623172 
533 2 34.2607 -7.81481 16.825 -0.0326022 9.04471e-05 -0.00339833 
513 1 33.4033 -7.1692 17.1695 0.0187862 0.0135093 0.0235397 
522 1 33.8016 -5.7378 17.4054 0.0110094 -0.0257109 -0.0300994 
525 1 34.8593 -5.10188 16.6099 0.0116753 -0.0232781 0.0187911 
534 2 35.5075 -5.58667 15.9315 -0.00673569 0.0241407 0.0488044 
515 1 34.8353 -3.67199 16.9608 -0.0178038 -0.023266 0.0180661 
526 1 35.2951 -2.27252 16.4838 0.0141006 0.0242058 0.000106003 
528 1 34.9574 -1.3021 17.5688 -0.00278054 0.00263904 0.00925277 
538 2 35.7923 -2.02153 15.5862 0.0596026 0.0395917 0.00796498 
135 2 20.5127 5.65044 19.8492 -0.0584178 0.0285751 0.083605 
282 2 20.7013 5.0964 19.9324 0.0638168 0.0273306 -0.0200333 
529 2 31.7584 -7.03738 22.4026 -0.0453059 -0.0109751 0.0512226 
530 2 31.3412 -8.48846 19.7161 -0.013364 -0.0650451 -0.0894389 
521 1 32.7123 -7.51308 18.2105 -0.00205717 0.00135152 0.0116455 
518 1 31.952 -7.63623 19.4598 -0.00743472 0.0355986 -0.00541758 
517 1 31.6652 -6.30698 21.626 -0.015072 0.0370089 0.013234 
511 1 32.207 -6.41268 20.3192 0.0294553 0.00545306 -0.0309399 
531 2 29.7558 -5.67835 22.2917 0.00111702 -0.000812914 -0.00956335 
519 1 30.6686 -5.22129 21.7491 0.0216686 -0.0158756 0.0240372 
535 2 29.917 -2.36767 22.8426 0.0403764 0.044962 0.00387018 
509 1 33.8759 -3.71087 18.0379 0.00955843 0.00998947 0.00145878 
507 1 33.381 -4.88617 18.5537 0.0176911 0.00837025 0.0024596 
512 1 31.2091 -3.97245 21.453 0.0174842 -0.015261 0.00151411 
520 1 30.7163 -2.73758 22.0896 -0.0167848 -0.0175181 0.0436463 
505 1 32.9895 -5.27139 19.7772 0.0147199 -0.0095554 0.00575111 
506 1 32.5512 -4.13852 20.6253 -0.0163433 -0.0124237 -0.0165748 
523 1 31.8262 -1.90504 22.5001 -0.00282606 0.0115089 -0.0125619 
508 1 33.2935 -3.011 20.3385 0.0386711 0.00906492 0.00216798 
514 1 32.9254 -1.8675 21.493 0.0352688 0.0146898 0.000442912 
510 1 33.779 -2.76887 19.0641 -0.0158434 0.0156622 -0.0133729 
524 1 33.9847 -0.778494 21.434 -0.00793452 -0.00315299 -0.0139456 
527 1 34.7082 -0.702725 20.2063 -0.010513 0.00650561 -0.00961167 
516 1 34.4214 -1.46053 18.9184 -0.0198293 0.00609058 -0.0151484 
536 2 34.0004 -0.622276 22.346 -0.0544165 -0.0199984 0.0664773 
97 2 15.4991 8.89333 35.5579 -0.0137757 0.0514588 0.032455 
73 1 16.3805 6.86527 35.4217 0.0141963 0.00664854 0.0153477 
92 1 14.6847 3.82036 32.0475 -0.0105775 0.00217176 -0.0413333 
82 1 15.1107 5.18199 32.6327 0.00333213 -0.00850126 0.00370699 
76 1 16.2911 5.54695 33.5936 -0.0278871 -0.027097 0.000599124 
95 1 15.0011 2.69594 32.893 0.00820321 0.00609909 -0.01173 
84 1 15.9521 3.01666 33.9591 0.00657938 0.0023802 0.0139671 
78 1 16.5347 4.37783 34.3888 -0.000854012 0.000341878 -0.00348702 
107 2 14.5339 1.67475 32.874 0.0673751 -0.0300905 0.013443 
104 2 13.565 3.2755 31.5034 0.0381057 -0.0243585 -0.0794493 
106 2 15.906 0.902906 34.4599 -0.0331161 0.0358226 -0.0549136 
96 1 16.4876 2.0315 34.623 -0.0164852 -0.00833952 -0.00403474 
77 1 17.6788 4.79113 34.9588 0.000829593 -0.00121434 -0.0071918 
91 1 14.0737 5.87519 32.373 -0.00248201 0.016625 -0.0104786 
94 1 17.6074 2.3706 35.5485 -0.0183681 0.0159231 0.0128763 
83 1 18.0416 3.59546 35.7826 -0.00480786 -0.00538564 -0.00256568 
88 1 12.8932 6.56343 31.9769 -0.00476798 -0.00368192 0.0104976 
103 2 12.5023 7.56266 31.8602 -0.0835239 0.0568878 -0.0492574 
74 1 16.5819 6.9151 33.9093 -0.0093036 0.016049 -0.00312017 
355 2 17.4316 7.51431 33.431 -0.0141636 0.0151177 -0.0420741 
248 2 12.737 9.04235 33.4088 0.0548774 -0.0245231 -0.036662 
432 2 23.2745 22.2221 -6.59604 0.0993985 0.0114655 0.0202966 
284 2 20.5479 15.7242 9.15831 -0.00270243 0.090839 -0.109549 
394 2 24.2327 18.9735 10.707 0.0670209 0.105354 0.0855984 
565 2 16.3015 31.3619 -11.2941 0.0132041 -0.0164353 -0.0674386 
542 1 13.0923 32.4442 -9.83715 0.00256043 0.0195669 -0.000460442 
144 2 24.955 19.5102 11.131 -0.022124 0.0460153 -0.0935452 
559 1 13.3853 34.6978 -7.71416 -0.0161231 -0.0260937 0.00395599 
556 1 14.442 33.8885 -8.23581 -0.000325846 -0.0123578 -0.0279452 
550 1 12.0706 34.1866 -8.38656 -0.0246166 0.0166457 0.00469327 
568 2 15.4664 33.6283 -8.29633 0.0272723 0.00417388 -0.0111141 
541 1 12.965 31.4647 -10.8436 0.00782683 -0.0183791 -0.00470344 
555 1 14.2754 32.6674 -9.20295 -0.0157013 0.0332029 -0.0307861 
547 1 14.1173 30.7321 -11.2169 -0.0151262 -0.0015683 -0.00255395 
548 1 15.555 32.4437 -9.94554 -0.0216124 -0.00997229 0.00379655 
553 1 15.2345 31.4897 -11.0342 -0.00961853 0.00783969 -0.00427854 
567 2 16.3889 32.9539 -9.60213 0.0417872 -0.0961072 -0.0605604 
571 2 13.5728 35.7867 -7.573 0.0236449 -0.042592 0.0511489 
343 1 15.9151 27.4278 2.54584 0.0210969 -0.0120754 -0.0104155 
328 1 17.4324 28.8486 4.16214 -0.00358528 -0.0213251 0.0118422 
340 1 16.7774 26.3984 2.9545 0.0161497 0.00449304 -0.0245674 
334 1 16.2914 28.6112 3.35352 0.00631448 -0.00265487 -0.0209382 
351 2 18.9299 24.7818 3.05435 -0.0235871 0.0264212 0.0612 
326 1 17.9561 27.5979 4.63277 0.0120593 0.0105007 -0.0100959 
332 1 17.628 26.0753 3.99536 0.0250911 -0.0155612 -0.0204627 
339 1 18.6984 25.153 4.17001 -0.00920507 0.0125695 -0.00421016 
337 1 19.7487 24.9133 5.14578 0.0114955 0.000206186 -0.00610601 
325 1 18.734 27.3109 5.77607 -0.00670715 0.000376688 -0.0137253 
356 2 14.5804 29.6021 3.05548 -0.0794678 -0.0280278 0.00698484 
359 2 14.9956 31.4606 4.5847 0.0425298 0.0021857 0.011114 
330 1 17.6042 29.7567 5.33741 -0.010637 0.015133 0.0143195 
336 1 16.8666 30.9448 5.30018 0.0128073 -0.028072 0.00820853 
344 1 15.3467 29.5864 3.78189 0.0101425 -0.00729414 -0.00867252 
347 1 15.768 30.7321 4.37497 -0.0179213 -0.0146479 0.000354206 
360 2 15.7248 32.4284 6.35414 0.0292286 -0.00463534 0.0875848 
348 1 16.6505 31.9369 6.34133 -0.00967257 -0.0134551 0.0188384 
331 1 19.3807 25.7845 6.15076 0.0209887 0.00430097 0.00705047 
349 2 20.7737 24.4349 5.20203 0.0345334 -0.000532338 -0.0366686 
341 1 19.6117 26.6711 8.60834 -0.0183603 -0.0113036 0.000421674 
353 2 19.8174 26.3845 9.59088 0.0186647 0.078038 -0.0128614 
350 2 21.2017 25.721 7.73897 -0.0177082 -0.0249214 0.0450358 
338 1 20.0728 25.7663 7.4921 -0.00502898 -0.0083355 -8.16622e-05 
327 1 18.5352 28.2183 6.81326 0.0053624 0.0038915 0.0381125 
333 1 19.0747 27.8334 8.27453 -0.0225115 -0.0119975 -0.00607036 
216 2 18.8238 31.0454 9.39486 -0.0647214 -0.095072 -0.0277116 
342 1 18.6346 28.9488 9.14425 0.00466005 0.000247039 -0.0126557 
345 1 18.9383 30.292 8.6456 0.0100976 0.00931047 -0.0182759 
329 1 18.4342 29.5542 6.42162 0.0022763 -0.00779247 0.00445533 
358 2 17.0718 32.4889 8.34904 -0.0287099 -0.042496 -0.0155542 
346 1 17.456 31.7247 7.40456 -0.030126 -0.017303 0.042835 
335 1 18.4069 30.6636 7.35389 0.00365529 -0.00299897 0.0181202 
354 2 18.3728 28.8104 10.1761 0.0515603 -0.0250013 -0.0549134 
210 2 21.1629 15.5023 9.69412 0.0164385 0.00591394 -0.145317 
570 2 12.8972 27.2942 -11.1245 -0.0382673 0.0739835 -0.058872 
133 2 13.8814 20.8354 17.4245 0.0365563 0.0415727 0.0946116 
198 1 14.8789 20.9898 17.6752 -0.00539649 -0.0102023 -0.00598875 
201 1 15.7072 22.1754 17.0205 -0.0137948 -0.0119363 -0.0115011 
191 1 15.8891 23.1451 18.0507 0.00137531 -0.0136573 -0.00181534 
214 2 15.5675 22.4374 16.0944 -0.0947553 -0.00761854 -0.0328149 
213 2 14.7248 23.2022 18.3548 -0.0596875 0.0102673 0.0600663 
212 2 17.8917 26.707 19.1584 -0.0825996 -0.0165214 -0.0473012 
209 2 15.1668 18.9577 17.8134 0.0288514 -0.0219338 0.0813275 
197 1 15.6544 19.246 18.7896 -0.00973699 -0.00824423 0.0110231 
189 1 15.7111 20.6807 18.8565 0.0162427 0.0142303 0.0115933 
206 2 16.6691 17.4321 19.9675 -0.0153905 -0.0187876 -0.0191679 
183 1 15.8913 21.4708 19.9677 0.00552387 0.0105985 0.00958872 
194 1 16.3171 18.5185 19.881 0.00300469 -0.0166753 0.0202175 
185 1 16.4343 22.7537 19.3379 0.0114734 0.0181631 0.0401267 
188 1 16.7427 21.2851 23.1131 0.00788294 0.0103174 -0.00561882 
181 1 16.4662 20.9047 20.9669 -0.0127881 0.028067 -0.011874 
182 1 16.7992 21.9087 21.8256 0.0118454 0.00620875 -0.0129556 
184 1 16.8006 23.3296 21.626 -0.0185651 0.002731 -0.00247036 
187 1 16.3085 19.4571 21.018 0.0325691 -0.0108088 0.00908705 
196 1 17.8476 22.1979 23.6021 0.00818457 -0.00844165 -0.00857091 
195 1 17.1068 19.8217 23.4602 0.00497409 -0.00545742 -0.0169803 
193 1 16.8398 18.9642 22.3208 0.0326844 0.00539427 -0.000838794 
205 2 17.7029 18.1228 22.4608 -0.0844608 0.0253761 -0.0491218 
199 1 17.8679 23.5345 23.4068 -0.00787136 0.00312533 0.0101706 
186 1 17.0606 23.7453 20.2056 -0.0238775 -0.00640731 -0.00759505 
207 2 17.8346 19.739 24.2211 -0.0190731 -0.0195809 -0.000586513 
203 1 17.2917 25.2361 20.2238 0.016879 -0.00760753 0.021488 
190 1 17.6305 24.3522 22.2011 0.0332781 -0.013977 0.0233589 
215 2 17.4796 26.6984 22.0658 -0.088276 -0.0438952 0.0810672 
200 1 17.4703 25.7241 21.6051 0.00607834 0.0245791 -0.0254432 
192 1 16.963 26.0232 19.0135 0.0161875 0.0205038 0.00609108 
202 1 15.9197 26.9036 19.2465 -0.00836774 0.00502722 -0.00448039 
204 1 15.3025 27.885 19.1326 -0.0104067 -0.0364633 2.82313e-05 
211 2 18.71 24.1396 23.6473 0.0196748 -0.0802098 -0.0534305 
208 2 18.3053 22.0659 24.5826 -0.0623042 -0.115313 0.0388092 
466 2 28.3362 25.9644 20.928 0.0443793 0.0610871 -0.101959 
105 2 27.517 25.8596 20.7524 0.0169215 -0.00775754 0.0306581 
566 2 12.7073 28.763 33.9003 -0.0292529 0.0252685 -0.120095 
554 1 13.0894 28.7349 34.8034 0.0177179 -0.0128352 -2.36578e-06 
549 1 12.64 27.8118 35.8576 0.000793946 0.0121732 0.0242148 
557 1 14.1104 29.6598 35.6075 0.0128383 -0.000162689 -0.025598 
424 2 42.8023 0.905929 -0.398206 0.0224969 -0.0310847 -0.0258593 
428 2 43.9677 4.94035 -0.46441 -0.0683442 -0.0981748 -0.00563063 
431 2 41.9413 4.08693 -1.63842 0.00943813 0.0517162 0.0613551 
419 1 43.0905 4.29694 0.0319805 0.0297213 -0.00384562 0.00377353 
416 1 42.0007 3.82005 -0.652851 0.0201168 -0.0114527 0.00947909 
422 2 37.4553 -4.67745 1.01843 0.0215013 0.0266415 -0.0121505 
411 1 41.893 0.711589 2.73045 0.0208823 0.0156916 0.00521072 
397 1 39.8511 -1.01951 2.35594 0.0196388 0.0039211 0.00230906 
423 2 40.8746 -0.775047 4.11938 0.0412696 0.00209433 0.000557704 
409 1 40.9293 -0.161964 3.31942 0.00407509 0.00312317 -0.0323898 
403 1 39.3121 -2.119 2.92215 0.0164074 -0.00292857 -0.0167367 
410 1 39.0381 -4.37128 2.71262 -0.0126199 -0.0175885 0.00242056 
413 1 38.6515 -3.17019 3.41681 -0.0107176 -0.00198618 -0.00709606 
14 1 38.3214 -4.53728 1.57309 -0.00448432 0.0193241 -0.00946533 
425 2 38.2084 0.470795 1.9192 0.0291835 -0.0491615 0.000648716 
29 2 38.4505 -3.25492 4.36856 -0.0259075 0.0863379 0.0286211 
427 2 43.0624 0.578799 2.70533 0.0972747 0.101417 -0.00279928 
17 1 39.2013 0.18323 1.81129 0.028288 -0.00556026 -0.0238749 
404 1 41.4995 0.849977 1.20618 0.0150926 0.0159719 0.00848389 
402 1 37.214 2.77614 0.333707 -0.0295355 -0.0262711 -0.0238965 
398 1 39.9499 1.19931 0.992744 -0.013902 0.0180689 0.0033544 
412 1 41.8577 1.32509 -0.164689 0.0151093 0.0163231 -0.0234143 
400 1 38.4004 2.82655 -0.431025 -0.0278195 -0.0138438 0.00586686 
406 1 41.1552 2.5519 -0.34156 0.0170922 0.018357 0.0085527 
415 1 39.7812 2.13102 -0.143382 -0.0008783 0.0185177 0.000598143 
426 2 38.0778 2.81782 -1.37517 0.0963415 -0.02795 0.0241439 
401 1 36.2651 2.70563 1.09029 0.0284807 -0.000101346 -0.0186723 
22 1 58.9909 27.1915 -7.40421 0.0102903 0.016654 0.00356561 
11 1 59.3399 28.6101 -7.37533 -0.00687307 0.0032126 0.0146053 
34 2 58.985 26.9582 -6.34292 -0.0886511 0.0529584 -0.138156 
36 2 58.8943 25.5097 -8.70629 0.0208755 0.0236451 0.0826271 
21 1 58.5659 29.8919 -7.249 -0.00717424 0.00282756 -0.00241233 
18 1 59.2873 31.2216 -7.10216 -0.0120348 0.00959487 0.0278806 
30 2 58.8682 32.024 -6.41294 0.0862496 0.0412905 0.0454928 
24 1 59.7653 26.2037 -8.35485 0.00565158 -0.0139331 0.00540793 
574 2 53.0284 19.2034 9.58962 -0.016856 -0.089172 0.0791418 
352 2 52.2733 18.9219 9.92536 -0.0269022 0.0723696 0.146876 
62 2 46.4922 22.5957 8.57252 -0.0551296 -0.0596658 0.0960012 
66 2 48.4408 20.373 8.07561 0.0393616 0.0646335 -0.0347862 
47 1 48.8255 21.3358 8.44814 0.0125503 -0.0248559 0.00888037 
57 1 48.9979 22.4623 9.00627 0.00800424 0.00397602 -0.0240068 
69 2 50.4132 22.3232 10.6394 0.012183 0.180893 0.0155818 
54 1 50.1947 23.4477 10.3707 -0.0100092 -0.0115506 -0.0154126 
58 1 49.3641 23.7428 9.47449 -0.0226486 0.000342743 0.0328956 
65 2 43.9233 25.9966 7.01695 -0.0177153 -0.0529214 -0.00183423 
45 1 46.6101 23.8438 8.62705 -0.0180732 0.0144478 -0.0182332 
50 1 45.0079 25.707 7.51162 -0.00445492 -0.034909 0.00539309 
53 1 45.5113 24.4315 7.99905 -0.0207894 0.0106355 0.0333068 
43 1 45.7371 26.8515 8.12156 0.020911 0.0155859 -0.057834 
49 1 45.2703 27.9113 8.92017 -0.00961312 -0.00578326 -0.00592473 
61 2 44.1672 28.0406 8.7077 0.0316023 -0.0172715 -0.0128892 
37 1 46.9053 26.3101 8.74552 -0.00340286 -0.0227398 0.0155388 
44 1 46.3504 28.5502 9.61444 -0.0107467 -0.00592021 0.0195631 
39 1 47.492 24.9636 8.80455 -0.00200683 0.0039738 0.00257378 
38 1 47.5517 27.5405 9.10096 -0.0102865 0.00987808 0.0060033 
51 1 47.0283 29.8825 9.49251 0.0128073 -0.00102208 0.026331 
72 2 52.2296 26.967 10.9909 -0.0259715 -0.0639367 -0.0627357 
59 1 50.6 27.6298 11.519 -0.000946173 0.00656786 0.0165027 
70 2 51.7288 24.6863 11.1367 -0.00804298 0.0340662 0.101514 
41 1 48.5996 24.9719 9.26509 0.029303 0.0157475 0.0079004 
42 1 49.4676 26.1169 9.41502 -0.00170316 -0.00887874 0.0071558 
60 1 50.9124 24.6217 10.5709 0.0197881 -0.00862893 -0.00722556 
55 1 49.4851 29.4111 10.4688 -0.0115049 0.00151075 0.000521612 
48 1 50.903 25.877 9.76622 0.00328625 0.00457585 0.00219556 
40 1 48.5577 27.1432 9.89487 -0.0168021 0.00744008 0.00663082 
56 1 51.3458 26.9766 10.4691 0.013633 -0.00827254 0.00398042 
46 1 49.584 28.1359 10.6245 -0.0141247 -0.00764191 -0.0247808 
63 2 46.2487 30.7345 9.508 -0.00329625 0.0427709 -0.00884894 
52 1 48.4989 30.0154 9.47851 0.0219572 0.0118582 -0.000472401 
67 2 50.0919 30.0664 10.9534 0.0574221 0.00299718 -0.0294798 
68 2 51.3962 28.1766 12.1611 0.0374429 0.0641862 0.00600517 
85 1 83.7508 -5.47764 -11.4841 0.00702002 -0.00281 -0.00631601 
100 2 83.2802 -4.69221 -8.04764 -0.103969 -0.0305106 -0.0886924 
87 1 83.6403 -5.32233 -10.1514 0.00600661 -0.0111608 -0.0111976 
532 2 83.2411 -4.72901 -6.35097 0.00873289 -0.0286957 -0.0463089 
501 2 74.1171 -10.5103 5.80393 -0.052962 -0.0777613 0.134127 
98 2 60.4126 5.70008 7.64203 -0.0256823 0.0200924 -0.0454124 
486 1 69.63 -10.3532 11.7905 0.0152436 -0.0139081 -2.97997e-05 
489 1 70.7599 -10.913 11.5865 -0.00186558 0.0136737 0.0176732 
488 1 74.2784 -11.1943 6.67202 -0.03352 -0.0318821 0.0163028 
500 2 76.557 -11.4601 7.80556 -0.0386575 -0.0298917 -0.0632129 
491 1 75.4205 -11.0057 7.85872 -0.0227767 -0.0452609 0.00496506 
497 2 74.9646 -10.3573 8.63764 0.08476 0.0656303 0.0156785 
492 1 71.8714 -11.5484 11.2954 -0.0061032 0.00708739 -0.0150293 
391 2 80.2241 -8.65974 8.32175 -0.043908 -0.0631975 0.0271656 
502 2 68.616 -10.2261 11.1949 -0.00490477 0.00531197 -0.0211822 
362 1 82.2114 -11.981 10.5427 0.0310706 -0.0198373 -0.0103045 
388 2 82.5598 -8.41701 11.1444 0.062225 0.0150927 -0.00877756 
368 1 81.7752 -10.6219 10.3557 0.0209037 -0.00885508 -0.00373153 
376 1 80.4448 -10.6233 9.48706 -0.00802482 0.00673991 0.00430578 
379 1 80.5823 -9.37415 8.93833 -0.0158691 0.0138341 -0.0245353 
375 1 82.4958 -9.56665 11.175 0.00943469 -0.00498804 0.0059398 
373 1 83.7799 -10.0984 11.5891 0.0118878 -0.0176353 0.000483937 
498 2 72.2957 -11.1108 4.77285 -0.064341 -0.00845411 -0.0361537 
485 1 72.1639 -11.9505 5.40534 -0.00461834 -0.0290594 0.010535 
80 1 82.9884 -4.79614 -9.20135 -0.0256575 0.00539545 -0.0229843 
64 2 73.7981 -11.6805 20.4712 0.0751644 -0.0158262 -0.00700386 
464 2 73.1944 -11.9433 21.1442 -0.0697499 0.00812557 0.113243 
35 2 60.4143 24.7978 -11.7082 -0.0214094 -0.0199114 -0.00176372 
12 1 60.1678 26.5974 -9.77019 0.0155222 -0.00325447 0.00452865 
23 1 60.5687 25.9472 -11.2323 -0.0204507 0.0223995 -0.0199484 
5 1 60.2127 28.9225 -8.57205 -0.0058643 -0.0134165 -0.025922 
6 1 60.3003 28.0823 -9.85305 -0.0337716 0.0182472 -0.000368742 
3 1 60.3734 30.26 -9.09198 0.021278 0.020807 0.0116907 
2 1 60.9603 30.0916 -10.4837 -0.012575 -0.00850412 0.0146811 
4 1 60.7851 28.7679 -10.9966 0.00183524 0.00682556 0.00930646 
396 2 79.0209 31.8819 10.7563 -0.0387237 -0.0947869 -0.049033 
7 1 62.2215 32.2793 -11.015 -0.00694759 -0.000964429 -0.00939273 
8 1 62.3172 34.2534 -8.94221 0.0127269 -0.00659456 -0.00153643 
27 2 62.586 35.0757 -8.24503 0.0647085 0.0424605 0.0118578 
371 1 82.2593 32.2519 11.8069 -0.0164771 -0.0227 0.0119977 
178 2 78.1944 31.0808 8.87682 0.0712181 0.0132262 0.00156884 
15 1 63.1717 34.6905 -9.92567 -0.0233818 0.0133048 0.0135159 
13 1 62.8888 33.4999 -10.7624 0.00284208 -0.00906806 -0.000579037 
382 1 80.9171 31.721 11.5276 -0.00307714 0.02412 -0.0263037 
174 2 71.8524 28.0669 6.73001 0.0332965 -0.0272979 0.0336299 
33 2 80.1048 25.683 3.46933 0.00416085 -0.0777082 -0.000642081 
287 2 80.6038 24.6266 3.53451 -0.0355612 0.0110593 0.00643712 
108 2 70.4274 34.4092 4.62562 0.000377595 -0.0101453 -0.0284098 
482 1 71.6004 34.75 5.10515 0.00360766 -0.0128102 -0.0090118 
1 1 61.6087 31.0906 -11.3061 -0.0219061 -0.00378545 0.0224024 
26 2 60.489 32.3391 -7.90547 -0.0666301 -0.0965371 -0.018464 
477 1 73.3649 35.914 6.34445 0.00755129 0.0110462 -0.0322713 
171 2 72.9779 23.6429 11.3535 0.0264571 0.0107315 -0.0180776 
370 1 80.0762 35.9502 9.20546 0.00498985 -0.0240145 -0.0128712 