ITEM: TIMESTEP
660000
ITEM: NUMBER OF ATOMS
576
ITEM: BOX BOUNDS pp pp pp
-1.2000000000000000e+01 8.4000000000000000e+01
-1.2000000000000000e+01 3.6000000000000000e+01
-1.2000000000000000e+01 3.6000000000000000e+01
ITEM: ATOMS id type x y z vx vy vz 
574 2 -8.87962 3.82079 10.8198 0.123935 -0.0245692 -0.0861884 
570 2 10.0938 -2.39353 10.2861 0.130766 0.0635559 0.143525 
545 1 11.7821 -0.819043 7.13501 -0.0113423 0.00121794 0.00599796 
543 1 11.3935 -2.03244 7.14058 -0.00383613 -0.0112198 0.022584 
547 1 11.4494 -4.51561 5.85967 -0.0126859 -0.0155767 0.00593783 
557 1 11.6559 -4.89038 8.94111 0.00282944 0.00149862 -0.0134675 
569 2 10.5139 -4.53618 6.30554 0.0155976 -0.0231131 -0.0517531 
565 2 11.5242 -6.32809 4.9989 -0.0523979 -0.0239428 0.053184 
549 1 10.4377 -2.67355 8.13457 0.009337 0.00505694 -0.00337597 
554 1 11.119 -4.03917 8.54369 -0.00668314 -0.0220473 0.00755794 
558 1 10.3027 -1.91191 9.22418 0.0049032 -0.00865105 -0.00424301 
551 1 11.4912 0.1699 8.12942 0.00522846 0.00685787 0.0120096 
573 2 10.1342 0.462439 9.73021 -0.0199974 -0.0780951 0.0105273 
561 1 10.5833 -0.352426 9.06747 -0.00483216 0.00684048 -0.0249222 
352 2 -9.20596 4.26133 10.1699 0.0457161 0.0374135 -0.014193 
575 2 11.3984 0.298535 5.52408 -0.0536522 -0.0616368 0.0650946 
566 2 11.3435 -5.75042 8.30418 -0.076724 0.0366658 -0.0156976 
537 2 -7.53844 6.34223 24.2421 -0.0612349 -0.0191129 0.0752786 
540 2 -7.05776 5.74795 24.4927 -0.0187429 0.0492032 -0.0048272 
177 2 -7.65004 4.05665 24.5024 0.0628835 0.00588831 -0.0703955 
136 2 22.0475 -12.2827 -8.70093 0.0213147 -0.0808643 0.0217331 
287 2 29.446 -0.678266 -7.32343 -0.0801607 -0.0328825 0.0386676 
272 1 28.8945 -0.492967 -6.39018 -0.0148337 -0.0117544 -0.0100604 
284 2 27.7392 -3.46051 -6.6284 -0.00724988 -0.0740281 -0.110914 
275 1 28.3532 0.619437 -5.92969 0.00104845 -0.00836872 0.0254741 
253 1 28.0374 -0.714154 -1.45033 -0.0167698 -0.0158912 -0.0368907 
259 1 27.8709 -1.40938 -0.286996 -0.0268775 0.0121679 0.00236975 
256 1 27.9147 -0.680356 -4.00523 0.0252243 0.00390619 0.0200979 
254 1 27.906 -1.52645 -2.79547 -0.00698067 0.0264641 0.01475 
265 1 28.4168 -2.85995 -0.273343 0.00837416 -0.0158219 0.0094691 
262 1 28.3566 -1.4263 -5.33681 -0.0257714 0.00477321 -0.00582922 
260 1 27.9742 -2.93516 -3.00034 -0.0266297 -0.0264628 0.00319626 
267 1 28.4969 -3.42548 -1.59054 0.0206063 -0.00447856 0.000970801 
268 1 27.6371 -3.4468 -4.32359 -0.00970263 -0.00786696 0.00227638 
271 1 27.9107 -2.82672 -5.55138 0.00761029 -0.0069836 -0.00190309 
280 2 27.4487 -4.50317 -4.34132 0.00209309 -0.0325258 -0.0234525 
279 2 29.2663 -4.44544 -1.58353 -0.0716519 0.0538451 0.0494239 
261 1 27.3828 1.48481 -0.333164 -0.0198466 0.0118487 0.00841801 
255 1 27.8444 0.789777 -1.3655 0.00627529 0.0190781 -0.00266699 
258 1 27.4356 0.672413 -3.79768 0.0221903 0.0305714 0.000968894 
273 1 26.4175 3.32094 -1.57797 0.0260926 -0.00265653 -0.00730484 
257 1 27.4379 1.43053 -2.63431 -0.027565 0.00558061 -0.00712284 
263 1 26.6069 2.73762 -2.95445 -0.0165062 -9.28096e-05 0.02236 
274 1 26.5741 3.15455 -4.33557 -0.0240841 0.00540747 -0.0110354 
286 2 25.9679 4.03162 -4.91684 0.0675996 0.0300888 0.0178975 
264 1 27.6384 1.55987 -5.15792 0.0118076 0.00279534 -0.00733348 
276 1 26.9738 2.62978 -5.60919 0.0101773 0.0130489 -0.00102419 
288 2 27.4012 2.66989 -6.70941 -0.0694063 0.00797114 -0.0082094 
270 1 26.587 2.79492 -0.207049 0.0144779 0.0401478 -0.0259947 
567 2 13.5463 -6.32059 4.19857 0.0543223 -0.0794458 0.0170028 
576 2 12.8353 3.14608 9.77991 -0.0194008 0.0904011 0.15337 
353 2 28.7942 -7.83464 6.19048 -0.0451242 -0.0506258 -0.0254226 
341 1 28.3177 -8.79467 6.23021 -0.0210339 -0.0230809 0.00767815 
338 1 28.9345 -10.0214 6.0994 -0.0180051 0.0184853 -0.00934655 
350 2 29.7236 -10.0456 5.40494 0.00853265 -0.00786481 -0.0418314 
542 1 13.0679 -2.87294 5.21394 0.0353006 0.000161075 -0.0213206 
546 1 11.8987 -0.624163 5.6931 -0.0299398 0.0143533 0.010306 
560 1 13.0213 -0.0455016 2.83874 0.0191213 0.00957396 -0.0277685 
544 1 12.6497 -1.36986 4.73325 0.00365154 0.0130185 -0.00559015 
550 1 12.7963 -1.13721 3.52075 0.0165026 0.0108094 0.0150059 
571 2 16.3931 -2.92061 2.29524 0.0165724 -8.81864e-05 0.0661566 
559 1 15.8371 -3.09707 3.31664 0.000849716 0.00639488 0.017092 
556 1 14.4995 -3.60934 3.34444 -0.00968288 -0.0120138 -0.00169127 
568 2 14.1765 -4.08015 2.2423 -0.0804447 0.0471996 -0.0543848 
555 1 13.558 -4.0734 4.61819 0.00651213 0.0122751 -0.0117128 
548 1 13.3711 -5.46687 4.60981 0.0187596 -0.00864434 0.00154686 
277 2 29.3529 -2.62194 0.315185 -0.021249 0.0219074 0.00794439 
281 2 28.732 -0.847127 1.77497 -0.0845217 0.0383469 -0.0688324 
269 1 27.6855 0.73637 1.03989 0.0199391 0.0135873 0.0145665 
266 1 28.1191 -0.592819 0.941891 -0.0125481 -0.00965123 -0.0197806 
572 2 12.9534 -0.353636 -0.358266 -0.059967 -0.0136284 0.0272528 
552 1 13.4002 0.321045 1.71508 -0.0255968 -0.0102698 -0.0281255 
563 1 13.3521 0.42287 0.284042 -0.018403 0.0120207 -0.00175647 
564 1 12.3938 2.2777 9.18219 0.0174435 -0.00453855 0.035709 
285 2 26.5548 3.53941 0.677915 -0.0181654 -0.0323549 0.111215 
421 2 12.9383 1.75712 7.28676 0.00636469 -0.0296677 -0.030138 
562 1 12.2146 1.52501 8.10694 0.00965238 -0.00268399 -0.00238429 
360 2 22.1171 -9.254 10.3684 0.118884 0.0713853 -0.021915 
348 1 22.8925 -9.40847 9.66145 -0.00130907 -0.00371041 -0.00742769 
359 2 23.2006 -11.23 11.5494 0.00757731 0.073009 -0.0143173 
325 1 27.0326 -11.3368 7.11421 -0.0113456 0.014611 -0.0110754 
330 1 25.0075 -10.9571 8.96729 -0.00729106 -0.0124995 0.00633319 
336 1 23.8999 -10.3636 10.0457 0.0250861 0.00711659 0.00927834 
329 1 25.1695 -10.0131 7.92382 0.00466095 -0.0179965 0.0247647 
335 1 24.2381 -8.88024 7.46938 0.000540918 -0.00962226 0.00851558 
345 1 24.7101 -7.54205 6.98199 0.0109716 -0.00342588 0.0108632 
346 1 23.0967 -8.80969 8.38328 -0.0362847 -0.013786 -0.0253555 
358 2 22.6671 -7.84416 8.04516 -0.0229338 -0.00800056 -0.0603838 
327 1 26.4475 -9.73613 7.38119 0.0118589 -0.00330769 0.020667 
342 1 25.793 -7.64589 6.15983 -0.00493014 -0.00040971 -0.00166365 
354 2 26.0236 -6.66247 5.3644 -0.0230222 0.0868749 -0.0383176 
333 1 26.8603 -8.71369 6.59223 0.014631 0.0121121 -0.00943201 
331 1 28.2509 -11.2547 6.52841 -0.00294831 0.0050671 -0.00260477 
216 2 24.0355 -6.79699 6.76822 -0.0869784 -0.0519864 0.00299882 
347 1 24.0121 -11.467 10.8993 0.00182215 -0.0121446 -0.00189717 
468 2 23.2856 -4.34914 10.9467 0.0323803 -0.0469834 -0.067402 
553 1 12.2007 -5.71309 5.4258 0.00111519 0.00346665 -0.0096219 
541 1 12.12 -3.17213 6.18506 -0.00886806 -0.0303244 -0.0078126 
461 2 29.2719 -6.62862 15.1401 -0.0750362 0.0656765 0.0102407 
210 2 21.397 -4.62952 25.729 0.0441505 0.00462685 0.0876896 
444 1 23.2946 -3.23235 13.3498 0.0279543 -0.0309969 -0.0131205 
459 2 27.0238 -0.870796 18.6245 0.056292 -0.0786937 -0.0565882 
456 1 23.5895 -4.24244 12.2309 -0.0265861 0.00981663 0.0102095 
455 1 22.1325 -2.11643 13.8573 0.0184822 0.0278684 -0.0121161 
452 1 22.3479 -1.20534 14.8583 -0.0141004 -0.0208923 0.000591051 
442 1 23.856 -1.20069 15.3191 0.00941582 0.00775705 0.00344637 
438 1 24.2516 -3.18227 14.4059 0.0263868 0.033136 0.00321656 
436 1 24.7798 -2.25635 15.3937 0.0120595 -0.00500424 -0.0400008 
454 1 24.5152 -5.13642 12.755 0.00707709 0.00933881 -0.000661392 
443 1 25.2122 -6.47242 12.816 -0.012477 -0.000579349 -0.011448 
437 1 25.0075 -4.47173 14.0297 0.000373445 0.000911538 0.00601424 
435 1 26.4548 -4.64332 14.4682 0.0122394 -0.0326759 0.00410611 
433 1 26.9899 -3.52292 15.5015 -0.027841 0.0094638 0.0231535 
450 1 26.7683 -7.13956 14.1215 -0.0127194 -0.0143684 -0.00654571 
462 2 27.2719 -8.3057 14.3529 0.0162431 0.00842521 -0.0193925 
441 1 27.2936 -5.86498 14.4612 0.0146156 -0.0121215 0.0212784 
449 1 28.5173 -6.00018 15.4126 0.0182202 -0.0156869 -0.00918985 
446 1 28.7637 -5.00383 16.4158 -0.00106447 -0.00191467 -0.00250787 
458 2 29.7352 -5.05865 16.752 0.0356346 0.0702394 0.0227031 
453 1 25.9442 -7.58442 12.9329 -0.0174834 -0.0263551 0.0173127 
439 1 27.581 -3.88734 16.7506 0.0175583 0.0114472 0.0146935 
434 1 26.2694 -2.07984 15.6351 0.0243077 -0.0336625 -0.0324131 
440 1 26.476 -1.1742 16.6958 0.0136713 -0.010625 -0.024596 
445 1 27.6663 -2.934 17.8528 -0.0119077 -0.00646966 -0.0166835 
457 2 28.5068 -3.28504 18.2663 0.0234947 -0.00747424 -0.00974529 
467 2 21.4515 -0.677342 15.0685 -0.010917 0.0733824 0.0955903 
463 2 23.7421 0.243184 16.9874 0.0220638 -0.0684925 0.038444 
451 1 24.3397 -0.351888 16.3999 -0.011419 -0.0160034 0.012295 
448 1 25.5753 -0.0466746 16.8611 -0.0208926 0.00754637 -0.000908783 
460 2 25.7205 0.825511 17.6276 0.0379746 -0.0238592 -0.0627001 
466 2 18.5024 -2.48565 23.6789 0.109888 0.0695905 -0.123668 
523 1 34.8206 11.7694 17.1816 -0.00150329 -0.00663403 -0.0106068 
532 2 33.5803 10.3453 16.0283 0.0103365 -0.0238816 -0.0298641 
465 2 26.5073 -8.15774 12.2808 0.104181 0.0831102 -0.0431113 
520 1 34.6837 10.5682 16.2633 -0.0178806 -0.00580542 -0.00449566 
512 1 35.5731 9.65108 15.4525 0.0263953 0.0130653 0.00964074 
519 1 35.1592 8.25712 14.9814 0.025019 0.00472742 0.0370591 
531 2 34.3342 7.50224 15.556 0.0772806 0.0155926 -0.0833307 
535 2 34.3343 12.1759 18.0449 -0.0475988 0.0370832 -0.00643225 
105 2 17.8189 -2.27498 22.9432 -0.0676717 0.033941 0.109107 
447 1 27.068 -1.70876 17.997 -0.0344343 -0.00764176 -0.0151554 
343 1 26.2787 33.5993 9.42235 -0.00324267 0.00389007 0.0416681 
150 1 35.5096 31.3211 -10.9708 0.00779978 0.000496182 -0.0214389 
164 1 34.8277 33.1545 -10.2054 -0.00818699 -0.0226945 0.0163209 
156 1 34.5828 31.4151 -9.77332 -0.0115051 0.0121792 0.0243885 
180 2 33.5321 31.9576 -9.82062 -0.0672462 0.0666029 -0.0265618 
167 1 34.5843 33.8978 -9.15903 0.0274135 0.00524437 -0.00707623 
168 1 35.1648 31.1124 -8.46522 -0.00201903 -0.000677937 0.0126774 
154 1 35.3594 33.4413 -11.4621 -0.00684198 -0.00662267 0.0139289 
178 2 34.9601 31.6422 -7.5049 -0.0818931 0.105433 -0.00119767 
337 1 28.9976 35.481 5.9467 -0.0048096 0.00987051 0.00808164 
344 1 24.6734 35.2454 10.9806 0.0138199 0.00512548 -0.00550751 
356 2 25.4905 34.6869 11.5728 -0.0452551 0.0855061 0.0303735 
349 2 29.5435 35.4004 4.94055 -0.0440921 0.019229 -0.0170149 
326 1 26.4848 35.4882 7.70102 -0.00322956 -0.026675 0.00939718 
328 1 25.5575 35.719 8.95989 -0.0103969 0.00475127 0.0131122 
351 2 28.8682 33.312 6.71541 0.00525031 0.0801143 -0.0136366 
340 1 26.9381 32.9286 8.22469 -0.0130673 -0.00321544 0.0154489 
332 1 27.1433 34.1955 7.50465 0.00370014 -0.00443944 -0.0139237 
334 1 25.2891 34.5926 9.85793 -0.00219339 -0.00231173 -0.00752958 
339 1 28.36 34.3476 6.60213 -0.0112121 0.00757375 -0.00206651 
165 1 35.002 26.8864 -11.808 0.0201326 -0.0056688 -0.00309107 
155 1 35.8516 29.4025 -9.60967 -0.0126461 -0.0272327 0.02395 
524 1 35.691 14.1508 16.4401 0.0153716 -0.00769876 -0.0214383 
536 2 34.6265 14.5115 16.8716 0.0750589 -0.0286432 -0.0101069 
514 1 35.6668 12.672 16.2673 0.0250028 0.00551424 0.019279 
135 2 31.9442 17.5608 31.5601 -0.0645574 0.0177518 -0.111983 
174 2 34.31 26.1406 35.8469 -0.0584482 0.0450971 0.0588943 
163 1 35.7013 34.3623 35.3911 -0.0191324 -0.00341942 -0.00776263 
282 2 31.1769 18.1091 31.4884 -0.100212 0.0819578 0.0575891 
162 1 35.8688 27.3873 35.8907 0.0263441 0.00719728 0.00665105 
175 2 35.1996 35.3373 35.4738 -0.026897 -0.0151576 -0.0117383 
148 1 35.8888 32.1087 35.9816 0.0082602 -0.0144321 0.00507125 
521 1 38.5313 8.96124 11.8046 -0.0208695 0.00702934 0.0200425 
504 2 37.4161 -1.14337 -0.945423 0.0497036 -0.0207947 -0.0652071 
513 1 39.622 9.75576 11.84 -0.0249766 0.00544948 -0.0060123 
530 2 36.6958 8.4975 11.0716 0.114642 0.0213506 0.0693462 
518 1 37.522 8.3795 12.0511 -0.0136039 -0.0121888 0.0115424 
71 2 37.2437 -1.06251 -1.90461 0.0932503 -0.0100549 -0.0488298 
179 2 38.8916 3.93295 16.8332 -0.0537257 -0.0683437 0.000542864 
539 2 38.2958 3.98463 16.3964 0.0774329 -0.0153689 0.0251974 
505 1 37.466 10.0515 14.0834 0.00508669 -0.0116144 -0.00557603 
511 1 37.1037 9.06119 13.3915 -0.016048 0.0191279 0.00838303 
507 1 38.3269 11.1506 13.4579 0.0342773 0.00759928 0.0123119 
508 1 36.9417 11.9007 15.8042 0.0157687 -0.0114098 -0.0104844 
522 1 39.4992 11.0978 12.894 0.00510026 -0.00222592 0.0382528 
69 2 58.9203 1.40638 15.829 -0.0349713 -0.0285763 0.054145 
506 1 36.8204 10.4593 15.4074 -0.00644859 -0.000703504 0.0122786 
54 1 59.5503 1.64388 16.718 -0.0323767 0.0158684 -0.0140723 
529 2 37.0336 7.16675 14.0043 -0.0175487 0.0591449 0.0768028 
517 1 36.1881 7.98746 13.9773 0.0149527 0.00492776 0.0290004 
533 2 40.5798 9.13217 12.5217 -0.00909173 -0.0607532 0.0540451 
283 2 43.3897 16.0068 10.6363 -0.0264875 -0.0032571 -0.118541 
250 2 59.1036 26.3189 -7.33552 -0.00656117 0.00061775 0.0284674 
149 1 36.1089 30.094 -10.8608 0.00295134 -0.0116345 -0.0133502 
166 1 36.286 30.1474 -8.32671 -0.00198848 0.0032498 -0.0100453 
357 2 37.1981 15.4968 -2.91824 0.0469405 -0.0116972 0.0371554 
252 2 37.9078 15.2534 -4.60721 0.002508 0.174166 -0.00272715 
240 1 38.0935 15.2804 -3.48894 -0.00571984 0.0145215 0.018174 
238 1 39.4695 15.4193 -3.06115 0.0132334 -0.0168556 -0.00705105 
237 1 40.7156 13.9869 -1.68304 -0.00692499 0.0110723 0.0131708 
227 1 40.7258 15.16 -2.45988 -0.0103717 0.00852104 -0.00801336 
221 1 41.4089 16.3716 -2.2886 -0.000424381 0.0142396 -0.0123065 
228 1 41.6225 17.566 -4.82106 -0.0237282 0.0399104 -0.0171965 
249 2 39.6295 13.4249 -1.57856 -0.018338 -0.0203589 -0.0437229 
234 1 41.6371 13.768 -0.864771 -0.0150966 0.0117339 -0.0214431 
236 1 41.9793 18.5075 -5.97352 0.000924238 0.00695794 -0.0180883 
222 1 41.5416 17.574 -3.35933 -0.00955014 -0.00562373 0.00237351 
220 1 42.6187 18.4773 -3.22264 0.0104831 0.0140898 -0.00496679 
218 1 43.6649 18.2683 -2.12986 0.00372063 0.00078057 -0.00663969 
219 1 42.5218 16.2018 -1.50242 -0.00582418 0.0097176 0.00455055 
217 1 43.7416 17.0682 -1.43525 -0.0158057 0.0255262 -0.00826296 
225 1 42.6105 14.9298 -0.88959 -0.00213952 0.0322745 0.0187213 
246 2 41.3346 12.7745 -0.520356 0.0702528 0.0242685 -0.00799895 
239 1 42.5811 19.8551 -5.47875 -0.00604984 0.0112116 0.0127734 
226 1 43.0652 19.6246 -4.1263 -0.00870153 0.00575302 -0.0297125 
251 2 43.1676 19.7119 -6.46939 -0.053638 0.034799 0.0146178 
235 1 44.2426 20.5006 -4.15236 -0.0113339 -0.0149162 5.52956e-05 
247 2 44.6029 21.3479 -4.77196 0.0157133 -0.0452797 -0.0167961 
232 1 44.7519 20.5841 -2.79941 0.0114131 -0.000559435 0.00377745 
244 2 45.249 21.5264 -2.74718 -0.0626647 0.0268656 0.0548498 
224 1 44.4597 19.4832 -1.98346 -0.00724212 0.0209324 -0.034044 
245 2 43.892 13.7043 0.00558095 -0.0858605 0.0126042 0.0738389 
230 1 44.8934 15.6028 -0.0165206 -0.00370482 0.01967 -0.0284637 
241 2 46.6872 17.8564 0.225688 0.0178589 0.0183381 -0.116749 
229 1 45.7451 18.1792 -0.0898708 0.00211269 -0.00169202 -0.0127057 
223 1 44.8959 17.0568 -0.483378 -0.0113203 0.00644149 -0.0232293 
242 2 45.2957 15.6132 0.958702 0.101454 -0.0147545 0.0516191 
233 1 43.9574 14.6474 -0.31663 0.0258132 -0.0193422 0.0108689 
231 1 45.5909 19.1876 -1.13492 0.0143209 -0.0105495 0.000501183 
243 2 46.2483 20.034 -1.24771 0.00689852 0.0674922 -0.0659759 
64 2 50.7399 29.0048 2.92403 0.0378933 -0.0415246 0.0476662 
464 2 50.6238 28.3522 3.12453 0.00235141 -0.0750833 -0.097043 
278 2 43.2389 15.7409 10.075 -0.02176 -0.0980627 -0.0910899 
515 1 39.8618 12.7702 14.2003 0.00480265 0.000890525 -0.00212172 
538 2 41.3016 14.5902 14.2065 0.0146952 -0.05685 0.0039029 
526 1 40.2627 14.2384 14.4531 -0.00916893 -0.00142966 0.0181146 
528 1 39.0513 14.9203 14.723 0.000600389 0.00958264 0.0169858 
509 1 38.582 12.1619 14.3067 0.00842659 -0.007128 -0.00168208 
516 1 37.6995 14.3066 14.9141 0.0158487 -0.0111381 0.0233174 
510 1 37.7149 12.8483 14.9972 0.0161807 0.0158489 -0.0203657 
160 1 36.392 33.9584 34.0977 0.0126754 0.007069 -0.00715717 
152 1 36.6657 32.5877 33.8653 0.0190286 0.00907652 -0.0117578 
527 1 36.3903 14.8439 15.2447 0.0275997 -0.00713431 -0.0151033 
500 2 53.2114 25.9165 15.6663 -0.101388 0.0111831 -0.0260917 
491 1 53.4849 24.9628 16.1815 -0.00498731 0.0104453 -0.0134154 
488 1 52.6982 23.906 16.5634 0.000849569 -0.00213595 0.00466074 
498 2 50.208 21.9231 16.5606 0.0602784 -0.0246241 0.00377212 
497 2 56.3266 22.4615 17.4595 -0.00833615 0.0248333 0.0240364 
501 2 53.8449 24.9795 17.2563 0.1093 -0.0139219 0.0745629 
490 1 58.4556 24.799 16.514 -0.00999771 0.0124531 -0.000304806 
492 1 59.2344 25.2661 15.4847 0.00119803 -0.01099 -0.0208136 
480 1 57.591 24.763 17.3132 0.00915413 -0.0164088 0.0377744 
525 1 40.2383 12.2651 12.9221 -0.0167819 -0.0116362 0.00832729 
171 2 38.6974 30.7489 31.6733 0.0495524 0.148951 -0.0155551 
475 1 51.82 21.268 19.6024 0.00729408 -0.00172671 -0.00366903 
469 1 52.8549 22.164 19.8542 -0.0138247 -0.00191121 0.0129146 
471 1 53.2527 22.6195 18.6333 0.00254112 -0.00672209 0.00888705 
477 1 52.1161 23.1658 17.618 0.0221258 0.0164408 0.00921531 
482 1 51.0558 21.183 18.3003 -0.01497 0.00615281 -0.00938203 
108 2 52.0566 20.772 20.7069 -0.044242 -0.0777213 -0.0281387 
494 2 50.3752 20.1777 18.3532 0.00168189 0.0814443 0.0874444 
485 1 50.8704 22.2486 17.5958 -0.0326203 0.0245797 -0.0115946 
481 1 53.5626 22.5824 21.2544 -0.0153695 0.00714326 -0.0146373 
493 2 51.5707 22.0926 22.5916 -0.0220928 -0.0581273 0.0542919 
483 1 52.6976 22.2466 22.2804 -0.0156769 -0.0328515 0.000242708 
479 1 54.5159 23.2968 18.8416 0.0110247 0.0109298 -0.035738 
474 1 55.6312 23.3696 17.6907 -0.000711144 0.00778128 -0.0104386 
499 2 55.7503 23.9252 23.3605 0.0415453 -0.068302 0.0587789 
476 1 55.0531 23.0727 21.2715 -0.00979865 0.00284332 -0.0288659 
484 1 55.6753 23.9488 22.2306 -0.00411068 -0.0281821 -0.00540113 
503 2 56.769 25.6274 22.6828 0.00181626 -0.0594283 -0.0384525 
487 1 56.6441 24.925 21.8299 0.0224782 -0.0188634 0.00997622 
470 1 55.3152 23.4023 20.0632 0.0168726 0.00272365 -0.00567635 
478 1 56.728 24.9953 20.4701 0.0153593 -0.00565265 -0.0138898 
473 1 56.2715 24.5458 17.9647 -0.00282883 -0.00696967 0.0143945 
472 1 56.4832 24.2873 19.5508 0.0176193 -0.00361696 -0.0288865 
534 2 41.2307 12.3436 12.4254 0.0293451 -0.000251376 -0.070895 
159 1 37.2656 31.8971 32.5817 0.0153243 0.022303 0.0103403 
161 1 38.1905 27.4803 34.8335 -0.00276535 -0.0171562 0.00215937 
173 2 38.5729 26.8012 35.6161 -0.0479109 -0.0250389 -0.0289733 
158 1 38.7704 28.6611 34.2084 0.00732673 -0.0127874 0.0192752 
170 2 39.8175 28.8255 34.1741 0.033772 -0.00268781 0.00143692 
153 1 37.0295 28.035 35.6405 -0.0148057 -0.0189991 -0.0200554 
151 1 38.0916 29.9996 33.7555 0.00706279 -0.00462189 0.0108291 
145 1 36.9426 30.1587 34.7138 0.0170394 0.00472918 -0.027155 
146 1 36.4268 31.627 34.7147 0.00700025 0.00253496 0.00484307 
157 1 37.9496 30.665 32.4085 0.00266206 -0.0094334 0.0124708 
169 2 36.2765 32.0422 32.156 -0.0148487 -0.0397652 -0.0553184 
147 1 36.6484 29.3922 35.9377 -0.00322364 -0.0051075 -0.0143112 
172 2 36.9908 34.7727 33.6295 0.0413089 -0.0536799 0.12204 
1 1 71.777 -6.93806 -5.00492 -0.00279222 0.0222106 0.0239007 
26 2 70.7777 -8.73926 -5.90947 0.0127886 -0.0516685 0.0798298 
3 1 72.6052 -6.68854 -6.26985 -0.0085435 -0.0318773 0.00223551 
18 1 73.8264 -7.40977 -8.61965 -0.00946838 -0.0108201 0.000905631 
9 1 72.9529 -7.64989 -7.45219 0.019637 -0.00384806 0.00443687 
30 2 72.1528 -8.40962 -7.59295 -0.0806774 0.0173558 -0.0291282 
386 2 76.4184 -9.44603 -11.4702 0.0391566 0.00120636 -0.0217568 
377 1 76.087 -11.4941 -11.8361 -0.0146382 0.00310991 0.0122202 
21 1 74.6712 -6.25356 -7.92815 0.0209813 0.0264626 -0.01445 
5 1 73.6825 -5.77905 -5.77314 -0.0276417 0.00516185 -0.0127829 
11 1 74.8919 -5.73028 -6.58448 -0.00852846 0.0156544 0.0257108 
133 2 69.3231 8.08226 -8.91648 -0.0718988 0.0674994 -0.0871463 
201 1 69.06 6.86081 -10.8612 -0.0095903 0.01398 -0.00989737 
198 1 69.9762 7.29753 -9.74198 -0.0149281 -0.00723621 -0.00130673 
213 2 68.1123 7.03663 -11.3431 0.154664 -0.0268626 0.0109845 
189 1 71.33 7.00025 -9.72507 0.0144365 -0.0237853 -0.00755765 
209 2 71.6852 6.03385 -7.44806 0.0214082 0.00171933 0.00867766 
183 1 71.9574 7.4078 -11.0242 0.0293047 -0.0139507 0.02679 
187 1 74.0563 7.14343 -10.2669 -0.00884036 -0.0275794 0.0334395 
197 1 72.0413 6.3647 -8.5039 -0.00276869 -0.00558088 -0.00510667 
194 1 73.4553 6.48296 -8.93509 0.00289317 0.00806149 0.00616829 
206 2 74.2093 5.94961 -8.38703 -0.0171216 -0.0827806 -0.0236549 
205 2 76.0423 6.82077 -9.34895 0.0766704 -0.0184929 -0.0587221 
193 1 75.5484 7.15559 -10.3165 -0.00239519 -0.0048859 -0.00548271 
181 1 73.2078 7.61006 -11.3476 -0.0285544 0.0233102 0.0213313 
195 1 76.2266 7.66291 -11.4389 0.0142393 -0.00247171 0.0131782 
7 1 70.9191 -8.1083 -5.10645 0.00357736 0.0119966 0.0233309 
13 1 70.1593 -8.00699 -3.79065 -0.0229002 0.0325417 0.0425543 
25 2 69.83 -8.83742 -3.25519 -0.0146066 0.0444399 -0.0605804 
2 1 71.671 -5.85407 -3.95469 0.0162153 -0.0201605 -0.022799 
15 1 69.9697 -7.04598 -2.74828 -0.0374996 -0.0102795 0.0146181 
27 2 69.5339 -7.01157 -1.80415 -0.0122133 0.029529 -0.0427313 
8 1 70.4252 -5.69424 -3.17714 0.0249184 0.00367594 -0.00221119 
31 2 69.7584 -2.88818 -0.985459 -0.066384 0.0845905 -0.00551234 
19 1 70.6141 -4.25705 -2.53049 0.0217884 -0.0150527 -0.0102417 
16 1 69.5925 -3.59403 -1.84548 -0.0179018 -0.00658602 0.0169874 
28 2 68.7179 -4.18132 -2.06813 -0.0651635 -0.0217103 -0.0562204 
4 1 72.2216 -4.63428 -4.13044 0.00266416 -0.0183456 0.0450699 
10 1 71.8965 -3.78446 -3.10349 0.00944789 0.018924 0.0145141 
20 1 73.061 -3.21757 -2.59393 0.0257029 0.0120199 0.00321586 
32 2 72.8139 -2.48341 -1.53783 0.0863971 0.00450998 -0.0121696 
22 1 74.8445 -4.20097 -6.71495 0.023388 -1.38799e-06 0.0170372 
34 2 74.0074 -3.54767 -6.95272 0.0354244 -0.0882657 0.0362522 
6 1 73.5817 -4.94787 -4.61091 -0.0128992 0.0149627 -0.00742791 
12 1 74.5437 -3.90739 -4.34118 0.00323381 -0.00259345 -0.0256956 
36 2 76.2937 -2.90879 -5.01256 0.047314 0.0328443 0.0333331 
23 1 74.2337 -3.08289 -3.14703 0.0228589 0.029343 0.00499618 
35 2 75.2247 -2.62312 -2.77642 0.0470309 0.0667791 -0.00880526 
24 1 75.45 -3.61173 -5.31182 0.00439297 0.0197618 -0.0379702 
374 1 76.5455 -10.2558 -12.1651 -0.0108175 0.00545146 -0.0396708 
85 1 74.2431 -10.0536 2.05562 0.0274518 -0.0118296 0.00593861 
99 2 74.8454 -9.7035 1.26556 0.0291345 0.00618316 0.119239 
100 2 73.3982 -8.02694 3.99055 0.0723162 -0.00300815 0.0484006 
80 1 74.314 -8.59307 4.17219 -0.0215782 -0.000681143 0.0155606 
87 1 74.4322 -9.64903 3.21622 -0.00431974 -0.0171626 -0.00232491 
207 2 77.2508 8.04641 -11.6418 0.0407723 -0.0183119 -0.00715441 
389 2 75.5742 -11.518 -10.6579 -0.0463325 0.0773584 0.0421398 
188 1 75.2218 7.49472 35.4353 -0.0208257 -0.00192262 -0.030117 
211 2 75.5235 9.08731 32.1081 -0.113217 0.0421404 -0.0237422 
62 2 62.5941 4.04064 16.2531 0.0942304 -0.0180493 -0.0425134 
39 1 64.132 2.89438 17.3184 -0.0007049 -0.0213734 -0.00115472 
45 1 63.1993 3.19044 16.168 0.00806881 0.0025857 -0.0145805 
57 1 60.4419 1.79892 17.5024 0.0157239 -0.00852225 0.00521769 
53 1 64.1896 2.99785 14.9974 -0.00135782 0.0368204 -0.0187654 
212 2 73.1061 8.88291 30.9724 0.0364022 -0.0142235 -0.0129725 
37 1 65.5642 2.93407 17.3426 -0.0226298 -0.032224 -0.0342898 
50 1 65.5704 3.36536 15.0372 -0.0162244 0.00555284 0.0243052 
65 2 66.1453 3.1162 14.3005 0.0531123 0.0201484 -0.0105338 
43 1 66.073 3.68402 16.3254 -0.0107725 -0.00362516 -0.00909327 
49 1 67.4923 4.00441 16.4919 0.0249726 0.00537001 -0.00229897 
44 1 67.5381 3.5285 17.8969 -0.0130372 0.0171132 0.00534966 
61 2 67.6722 4.96022 15.806 0.00358703 0.00435206 -0.0639253 
63 2 69.6363 4.67882 18.6759 -0.00528848 0.0466343 0.0274526 
138 2 74.5563 3.48121 16.2482 0.0339489 -0.0025574 -0.0882951 
126 1 75.25 4.03569 16.7528 -0.0233328 0.0180316 -0.00614528 
129 1 75.9088 3.88654 18.1714 0.00629501 -0.00887183 -0.00682957 
117 1 76.0853 5.1706 16.0057 0.0184782 -0.034461 0.0280754 
119 1 76.8428 4.76973 18.9209 0.00152665 0.00145403 0.0226383 
125 1 75.8358 5.47859 14.5203 -0.0416475 -0.003298 0.00427316 
208 2 76.8221 7.18036 33.8614 0.0245275 -0.0139492 -0.0142609 
184 1 73.0569 7.74021 34.166 -0.0393211 -0.0160447 0.012121 
113 1 77.8647 5.42733 17.9217 0.00421102 0.0308984 0.0289267 
111 1 77.3032 5.68568 16.5345 -0.0083699 -0.0189813 -0.0224841 
137 2 74.9563 5.35988 13.9884 -0.069228 -0.0858574 0.0512817 
122 1 76.6337 6.27801 13.6351 0.00562898 -0.0285421 -0.0231432 
134 2 76.0575 6.68595 12.6954 0.0248362 0.0991638 -0.0363181 
112 1 79.3579 7.42746 17.8411 0.022698 0.00360757 0.00583439 
115 1 77.634 6.89821 14.3787 -0.0333356 0.0161352 0.0215491 
109 1 78.0463 6.68905 15.8333 -0.0172912 0.000331003 -0.00906394 
496 2 78.9885 7.60192 12.6044 -0.0817637 -0.0442559 0.00101904 
121 1 78.6248 7.69985 13.5585 -0.0131434 0.00853708 0.00935817 
110 1 78.755 7.69834 16.6011 -0.0157402 0.0166587 -0.00755178 
123 1 79.568 8.2839 14.2123 -0.0302876 -0.0250717 -0.0307039 
116 1 79.861 8.38515 15.6543 -0.0138866 0.0122569 0.0211693 
124 1 81.0063 8.46121 16.509 0.0170717 0.00165616 0.00709478 
106 2 65.0808 -11.8769 19.0319 0.0035911 -0.106324 0.0184483 
199 1 75.1504 8.1308 32.7382 0.0207341 0.0184975 -0.000920542 
320 2 75.2475 -1.83146 24.6719 -0.0264873 0.0329707 -0.0543945 
308 1 76.1203 -2.34966 24.3475 0.0175241 -0.0110352 0.00772919 
321 2 77.3117 -3.13806 20.0811 -0.0078366 -0.0779337 -0.0760131 
312 1 76.8773 -2.32686 20.7591 -0.0165145 -0.0120748 0.0298392 
324 2 75.8899 -1.33143 20.5322 0.0219986 0.00633776 0.0166318 
311 1 76.1178 -1.81674 22.9199 -0.00300198 0.0169015 -0.0048666 
323 2 75.2998 -1.70801 22.1276 -0.117428 -0.0441442 -0.0880838 
300 1 77.3857 -2.18202 22.2146 -0.00816667 0.00148524 -0.0180102 
292 1 78.7059 -2.88322 24.1401 0.0164893 0.000668909 0.00358969 
294 1 78.6573 -2.61342 22.7412 -0.0049642 -0.00146264 0.00958609 
293 1 79.9643 -2.49993 21.8997 -0.0310095 -0.0264242 0.0199256 
322 2 79.4281 -3.12183 19.6906 0.044226 0.104562 0.0496079 
310 1 80.0293 -2.39286 20.4383 -0.00505958 0.00589721 0.0243968 
289 1 80.667 -1.21955 23.8792 0.0113132 0.026028 -0.00402427 
318 2 80.822 -2.28683 18.0234 -0.107129 0.103062 -0.0156104 
299 1 80.5454 -1.86029 19.0624 -0.00211451 -0.0191071 -0.017056 
306 1 81.5934 -1.16327 19.2272 -0.0171837 0.0044009 0.00694589 
291 1 80.8404 -1.49264 22.4265 -0.00222449 -0.00208464 0.00596964 
66 2 60.2626 2.65555 19.2054 0.0211878 0.00483393 -0.000458554 
47 1 61.1638 1.91127 18.7912 -0.0233129 -0.0128987 0.00773719 
41 1 63.8905 1.92858 18.3859 0.0089021 -0.025273 0.00358936 
58 1 62.5773 1.26089 18.6527 -0.00563227 0.0154898 0.0245014 
42 1 64.9757 1.33481 19.1289 -0.0197159 -0.0157239 0.0263609 
60 1 62.7252 1.08576 20.0638 -0.000616567 -0.0181036 0.0193605 
48 1 64.2448 1.20098 20.4302 0.0227111 -0.0209867 0.000303391 
56 1 65.0897 1.22366 21.7794 0.0155709 -0.0155978 -0.0174871 
40 1 66.2964 1.54261 19.2401 0.0228756 -0.00962197 -0.00575704 
72 2 64.5281 0.661626 22.4632 0.0117047 -0.10135 -0.0329055 
70 2 62.0563 1.63417 20.7522 0.0189385 0.027138 -0.0785448 
59 1 66.1499 1.94974 21.7301 0.00340491 -0.0172004 0.0279015 
38 1 66.5886 2.43087 18.2678 -0.0151989 -0.00147312 -0.0147231 
51 1 68.7877 3.88174 18.5834 -0.00555063 -0.000556416 -0.00726614 
68 2 66.3303 2.04334 22.8157 0.00970894 0.0189658 0.0545255 
52 1 68.9867 3.34619 19.796 0.0069104 -0.0208703 0.0271071 
46 1 66.8451 2.16237 20.4175 -0.0286013 0.038722 0.0043118 
55 1 68.4188 2.59301 20.6974 0.031899 0.00988607 0.0167998 
67 2 69.62 2.51356 21.1858 0.0376041 -0.0357649 0.0182306 
141 2 75.7413 2.82543 18.6784 -0.0711956 0.0457054 0.0378575 
142 2 76.4126 3.54552 20.514 -0.0433248 -0.119791 0.0228484 
130 1 76.8925 4.44141 20.2314 -0.0195678 -0.00151773 0.00217832 
114 1 78.8798 6.13253 18.451 -0.0148534 0.0340876 0.0184802 
132 1 78.1011 5.21393 20.7066 -0.000997506 0.00830613 -0.0163426 
120 1 79.0157 5.78614 20.0057 -0.0151813 0.0382492 0.0190103 
131 1 79.877 6.76613 20.7214 -0.0149917 0.00745067 0.0132829 
309 1 82.0575 -0.47226 20.2834 -0.00794344 -0.0167543 0.0107116 
297 1 81.6827 -0.482801 21.7518 -0.00517878 -0.0195426 0.0148324 
317 2 82.2977 1.67202 21.5771 0.0526629 0.0757659 -0.0070049 
305 1 81.9061 0.920767 22.3335 0.00801836 0.00965489 0.0107213 
143 2 79.8347 6.65666 21.9791 -0.0122517 0.0694434 0.0121404 
314 2 80.3394 1.77836 23.2782 -0.0164751 -0.0309114 -0.0258543 
139 2 82.9423 8.75135 17.8794 0.0571079 0.013839 -0.0976474 
140 2 81.666 7.90411 20.1095 -0.0491582 -0.0100145 0.0944776 
128 1 80.9066 7.40914 19.9426 -0.00785687 -0.00960815 -0.0051826 
118 1 80.5858 7.67196 18.4533 -0.00754651 0.0097795 0.00396128 
127 1 81.7979 8.45008 17.5905 -0.000950275 0.00897552 -0.0115222 
107 2 63.2481 -12.3763 18.721 -0.0610875 -0.0943983 0.0755289 
379 1 79.5902 -12.026 30.1138 0.00500763 -0.0325173 -0.0352284 
298 1 77.447 -2.89646 25.0236 0.00730252 -0.0162513 0.00725362 
307 1 77.231 -2.88041 26.4161 -0.0136264 0.0112248 -0.0110173 
290 1 79.6289 -1.76681 24.7658 0.00471486 -0.0141458 -0.0120487 
304 1 78.7418 -2.83756 27.0027 -0.010745 0.0267214 0.00264177 
319 2 78.7515 -2.34984 28.1251 0.00593 0.0633865 -0.0792192 
316 2 79.125 -3.78035 26.7483 0.0176301 -0.0347676 -0.0291373 
296 1 79.2959 -1.57389 26.1449 0.00560884 0.0139659 -0.0203287 
315 2 79.0675 -0.593383 28.0021 8.33192e-05 0.073462 0.00768709 
303 1 79.4722 -0.571156 26.8476 0.0174271 -0.00493556 0.00124736 
301 1 80.3138 0.205381 25.7169 0.0302506 -0.00186339 0.00522798 
313 2 80.479 0.857117 26.5371 -0.0369245 -0.0421346 0.0466421 
295 1 81.0159 0.0497196 24.5552 0.019868 -0.0306105 -0.0111312 
302 1 81.3506 1.25847 23.6169 0.00439141 -0.0117941 0.0110719 
361 1 77.7276 -11.4423 33.964 -0.0056494 0.0013531 -0.00984757 
367 1 77.3963 -10.3002 34.6756 0.017784 -0.00457398 0.00614044 
387 2 78.174 -7.12019 32.4743 0.0267996 0.0155608 -0.0393512 
373 1 77.56 -7.57898 31.6586 0.0186266 -0.00731382 -0.002432 
375 1 77.8158 -8.93879 31.1147 0.00707427 0.000187757 0.0106983 
388 2 76.6462 -7.00574 31.501 0.0298509 -0.051504 0.0706424 
362 1 77.9975 -11.3912 32.5699 0.02552 -0.0222914 -0.0159468 
196 1 75.8724 7.6764 33.967 -0.00319902 -0.0140403 -0.00564869 
376 1 78.7925 -11.0487 30.4529 0.0129108 0.034923 -0.00262452 
368 1 78.0238 -10.2471 31.3876 0.000201589 -0.00493677 -0.00450312 