ITEM: TIMESTEP
980000
ITEM: NUMBER OF ATOMS
576
ITEM: BOX BOUNDS pp pp pp
-1.2000000000000000e+01 8.4000000000000000e+01
-1.2000000000000000e+01 3.6000000000000000e+01
-1.2000000000000000e+01 3.6000000000000000e+01
ITEM: ATOMS id type x y z vx vy vz 
119 1 -7.72154 -0.7518 -5.67725 -0.0207027 -0.00194689 0.00505485 
130 1 -8.0607 -1.76881 -4.66668 -0.00637475 0.00954361 0.0228737 
142 2 -8.12124 -1.48802 -3.59755 -0.0305636 -0.0199187 -0.0243445 
113 1 -6.41175 -0.533475 -5.40101 -0.0035852 -0.0279017 0.012735 
110 1 -3.38684 -0.901312 -6.1519 -0.0124351 -0.00185183 -0.0112009 
116 1 -2.06795 -0.525851 -6.16231 -0.0164027 0.00578389 0.00938206 
123 1 -1.77179 0.412185 -7.16013 -0.0143298 -0.00270326 -0.0231485 
496 2 -0.581353 0.139693 -7.2341 0.032444 0.050022 -0.0288923 
111 1 -5.59205 0.550627 -6.02374 -0.0224002 0.0137324 0.0289062 
115 1 -3.76495 1.44893 -7.11745 -0.0205853 0.000193591 -0.00681056 
121 1 -2.38042 1.65907 -7.33726 -0.0253634 -0.00786225 -0.0062291 
139 2 -1.90093 2.50204 -7.87151 0.0893863 -0.0432944 0.0167215 
125 1 -5.83896 3.07905 -6.69129 -0.0261915 0.0258786 -0.0164553 
134 2 -6.50188 3.90778 -7.05068 0.0333719 -0.180347 0.0153439 
122 1 -4.64808 2.82325 -7.4078 -0.00927334 -0.00751096 -0.00347971 
109 1 -4.17077 0.40717 -6.26599 -0.0148091 0.00203706 0.0239989 
90 1 -8.90898 -7.13328 -2.47571 0.0483768 -0.00660163 0.00413628 
93 1 -9.11934 -6.50055 -1.35465 0.00305122 0.0178023 -0.00252684 
21 1 11.6479 -10.0974 -1.83518 0.0110771 0.00937267 0.00858932 
75 1 -11.0269 -8.46372 -2.14153 -0.0054914 0.00924923 0.0148532 
81 1 -9.7047 -8.77084 -2.46354 -0.00940931 -0.0192129 0.0256775 
79 1 -11.3915 -10.7852 -2.71326 -0.0071501 0.00536674 -0.0206175 
89 1 -8.81226 -9.7344 -3.05714 -0.000407621 -0.00483018 -0.00942864 
86 1 -10.2932 -10.228 -3.49222 0.00364019 0.00996085 -0.0183702 
574 2 2.44956 8.6383 6.62994 -0.0154785 0.112826 -0.034704 
77 1 -11.4889 -7.38634 -1.15559 -0.00973774 0.00928922 0.00323218 
73 1 -11.8879 -9.4145 -2.42669 0.0186926 -0.00704562 -0.00440417 
18 1 11.6084 -11.5251 -1.91239 -0.0329574 -0.000525199 0.0490746 
98 2 4.43121 3.63207 7.67116 0.0388169 0.0249134 0.00309388 
83 1 -10.3723 -6.56621 -0.665688 -0.0291815 -0.00718985 0.0174037 
132 1 -7.42375 -3.19636 -4.5735 0.00287951 0.0113834 0.0307194 
94 1 -10.483 -5.61804 0.306863 0.00793946 -0.034826 0.0106083 
143 2 -4.60548 -4.9155 -3.74376 -0.0802313 -0.048744 -0.00404699 
128 1 -4.09571 -4.48132 -5.65776 -0.0050906 -0.00286497 -0.0335459 
140 2 -3.55465 -5.4143 -5.42506 -0.044757 -0.101487 -0.0717222 
131 1 -4.92199 -4.07085 -4.56782 0.0293445 0.0145256 -0.017321 
127 1 -1.81288 -2.83638 -5.62556 -0.0122504 0.00371395 0.0153338 
118 1 -3.39849 -3.23667 -5.74959 0.0143055 -0.00123901 -0.0123226 
120 1 -5.99504 -3.03527 -4.8153 -0.0152956 0.00181793 -0.00646493 
112 1 -4.18437 -1.97548 -6.10366 -0.000122835 0.00161515 -0.0213988 
114 1 -5.51744 -1.78819 -5.32438 0.0161964 0.0157983 -0.0115743 
124 1 -1.30795 -1.55749 -5.49512 -0.0012529 -0.0150729 -0.000782177 
129 1 -8.5687 0.681595 -5.88487 -0.00740083 0.00214374 -0.0020287 
141 2 -9.37738 1.2706 -5.37737 -0.00344524 -0.027065 -0.0672852 
126 1 -7.77133 1.98887 -6.02203 -0.00247553 -0.0055454 -0.0192682 
138 2 -8.56401 2.81911 -5.73311 0.110251 -0.0237099 0.0448172 
117 1 -6.36544 1.78721 -6.14893 -0.0363771 0.00295003 -0.00279638 
416 1 -5.48466 8.84899 -1.18916 0.00945217 -0.00819317 0.00425155 
419 1 -6.50505 10.3132 -1.23511 -0.0129429 -0.0112782 -0.00448459 
428 2 -6.52836 10.5919 -0.33543 0.039588 0.0192083 0.00293143 
431 2 -7.51147 10.292 -1.83917 0.0489377 -0.112781 0.0410259 
352 2 2.80507 9.39897 6.03121 0.144553 -0.0747626 -0.0415657 
406 1 -4.73788 9.06085 -2.43069 -0.00270684 0.00843933 -5.39102e-05 
423 2 -0.760073 9.22077 -1.04641 0.0297485 0.0329084 0.0421657 
427 2 -0.734904 11.1047 -2.8625 -0.00719366 -0.00742974 0.00342744 
411 1 -1.62257 10.667 -2.51033 -0.00528719 0.00875431 0.00216167 
412 1 -3.94084 9.49797 -3.39443 0.00491412 0.00956457 0.00637909 
409 1 -1.683 9.75597 -1.38318 0.0325711 0.00634491 0.00584192 
404 1 -3.0519 10.5696 -2.96178 0.0135622 0.0043574 -0.00100395 
398 1 -3.86109 11.6011 -2.2556 4.04662e-05 -0.0119101 0.0147593 
17 1 -3.9444 10.9109 -1.0683 -0.00162467 -0.0156592 -0.00791365 
397 1 -3.08813 9.61558 -0.956933 0.0146804 -0.0139247 -0.00330961 
424 2 -3.96223 8.93553 -4.29211 -0.101622 0.0297181 -0.050724 
102 2 -9.75284 -4.85868 0.820005 0.0514169 0.0339864 -0.0647127 
96 1 -11.6175 -5.98014 1.15805 0.00317929 0.031168 0.0270435 
106 2 -11.8104 -5.12848 1.88649 -0.109342 0.00539559 -0.039489 
14 1 -5.51949 7.76147 2.67477 0.00888549 -0.0239538 -0.00635327 
422 2 -6.02782 7.74817 3.67954 0.0161394 -0.0261518 0.0431902 
413 1 -4.12544 7.86508 0.584835 0.0140292 0.00422776 -0.00864275 
29 2 -3.61362 6.75269 -0.649557 0.051312 0.0491455 -0.0409976 
410 1 -4.8995 8.08491 1.71017 0.0132308 0.00791751 0.0100632 
403 1 -3.40183 8.06206 -0.411317 -0.00673543 -0.00336473 0.00279551 
101 2 -10.3638 -10.1596 -4.57123 -0.00321457 -0.0261408 -0.0182471 
30 2 11.1704 -9.30746 -1.1315 -0.112987 0.000542236 -0.00723589 
425 2 -4.17273 11.6036 -0.0674503 0.0256354 -0.125557 -0.0416062 
503 2 1.36777 3.66473 32.6119 -0.0462672 0.0459776 -0.00736703 
136 2 0.610732 14.8533 -5.82962 0.0533692 -0.00846848 0.0278966 
430 2 2.67052 15.9586 -4.22429 -0.101106 -0.000863394 0.0020124 
229 1 -2.50774 28.8161 -7.33173 0.0105302 0.0157548 -0.00509974 
231 1 -2.04002 28.7331 -5.96867 0.00114367 -0.0026051 -0.000205679 
217 1 -0.286456 27.996 -7.82915 -0.0164638 -0.0381374 -0.0110668 
224 1 -0.739147 28.6791 -5.37779 -0.00289604 -0.00948047 -0.00643007 
223 1 -1.48575 28.0733 -8.16038 0.00372928 0.0174517 0.0300244 
218 1 0.296461 28.2277 -6.44549 0.0273967 0.00659166 -0.00375644 
230 1 -1.91232 27.9118 -9.51606 0.00981861 -0.000911071 0.018776 
241 2 -3.46558 28.6569 -7.35942 0.0820629 -0.0125696 0.0069954 
242 2 -2.29265 25.9856 -10.809 0.0247238 0.0436635 0.0789028 
233 1 -2.25482 27.1703 -10.7651 -0.0402684 0.0365942 -0.00587672 
245 2 -2.50145 27.5316 -11.8413 -0.00638338 0.0374171 0.0417088 
225 1 -0.460169 28.2389 -10.0057 -0.00267263 -0.00851028 0.0148547 
220 1 1.72126 28.1751 -6.37338 -0.00117224 0.0166438 -0.0159022 
222 1 2.53232 28.2983 -7.49492 -0.00783545 -0.0215275 0.029719 
221 1 1.8409 28.5124 -8.66634 -0.00484457 0.0308945 -0.0257445 
219 1 0.39316 28.2691 -8.88562 -0.00739497 -0.0109141 0.00678386 
237 1 1.43036 29.095 -11.4649 0.011168 0.0100849 -0.00674221 
234 1 0.102076 28.9709 -11.0542 -0.00130654 0.00619761 8.30567e-05 
227 1 2.07635 28.9518 -10.1181 0.0079178 0.00876124 0.00213346 
238 1 3.40521 28.1715 -10.0703 0.000463017 0.0132767 -0.012017 
228 1 3.51812 29.3252 -7.76108 -0.00583753 0.00141252 0.0047783 
240 1 4.18362 28.8583 -9.00769 0.00625628 -0.00287735 0.000360918 
357 2 3.9631 28.6933 -10.8142 0.0786074 -0.0379724 0.0340793 
252 2 4.89706 28.2716 -8.2005 0.0113458 0.00917851 -0.0811826 
236 1 3.87682 30.2362 -6.67244 0.025314 0.0126884 -0.0162594 
71 2 7.54176 26.5763 7.79755 -0.043172 -0.0250208 0.00507031 
27 2 7.40366 34.2424 -6.33365 0.00587388 0.0245436 0.0285043 
7 1 8.40309 34.4756 -6.43947 -0.0025552 -0.0190662 0.0313091 
8 1 9.72507 34.3832 -6.95218 -0.0318237 0.0217416 0.00698924 
2 1 11.8285 35.3665 -5.80342 -0.0145951 0.00219563 -0.0169129 
418 1 -0.813831 15.8828 -4.73547 -0.00982707 -0.0136333 -0.0133729 
250 2 -1.43699 15.8714 -5.55648 -0.00470808 -0.0234713 0.0566973 
408 1 -1.27772 15.8044 -3.30867 0.00356199 -0.0273036 0.0286899 
400 1 -2.80789 14.1419 -2.47298 -0.00433469 -0.0201124 0.011758 
401 1 -0.495733 15.6452 -1.98711 0.00627023 0.0359365 0.0100231 
426 2 -2.73348 16.7028 -2.93625 0.0708226 0.00519119 -0.0022489 
402 1 -2.48661 15.7281 -2.55308 -0.021675 0.0232798 0.00362251 
415 1 -3.45411 13.0216 -2.20934 0.0204416 0.0228902 0.0273328 
420 1 0.540935 15.409 -4.79264 -0.0122917 0.0280976 0.00813801 
405 1 1.77014 15.6817 -3.98683 0.0245712 -0.00570554 0.00793247 
414 1 1.55689 16.4688 -2.6668 0.000969084 0.00827608 0.0218314 
399 1 0.853132 15.8692 -1.44985 0.00410955 -0.00871015 -0.00784845 
407 1 2.01615 17.7412 -2.88614 -0.00169209 -0.0106621 0.0271356 
417 1 2.04576 19.0077 -2.63669 -0.0133595 -0.000442587 0.007081 
429 2 2.49105 20.0052 -2.84108 -0.182348 0.044357 0.0893691 
1 1 11.1714 34.4054 -7.02401 -0.00187854 0.0169093 0.00908225 
243 2 -2.85047 28.2613 -5.37495 -0.0303563 0.0124255 -0.0463566 
232 1 -0.173234 28.5891 -4.062 0.00844824 0.00386085 0.035866 
244 2 -0.844773 28.6716 -3.2127 0.00391165 -0.0413473 0.100277 
388 2 5.0718 30.183 -6.45244 -0.0440192 -0.00451725 -0.0482388 
235 1 1.01574 29.3048 -4.26566 -0.00511168 0.0039586 -0.0124893 
247 2 1.11843 29.7573 -3.18233 0.000437539 -0.0416446 0.0278001 
226 1 1.96566 29.0862 -5.31344 -0.00531144 0.0349758 0.00812472 
251 2 4.20989 29.0843 -4.80871 0.0464255 0.00679715 -0.10585 
239 1 3.41889 29.6472 -5.40991 0.00942247 0.0131517 -0.00801226 
504 2 8.05915 26.5473 6.91567 0.0564349 0.054145 -0.0831285 
15 1 9.02379 35.0332 -5.07842 -0.0210438 0.0202278 0.00454553 
13 1 9.8786 35.4574 -4.15519 0.0054165 -0.0102122 -0.00351332 
3 1 11.2842 35.4124 -4.36909 0.0213875 0.0218049 -0.00485439 
25 2 9.49357 35.8444 -2.99082 0.0848383 0.0692701 0.0193929 
394 2 7.3098 19.1365 -2.73882 -0.0446676 -0.0419552 -0.142854 
144 2 6.70755 18.9536 -2.32145 -0.00919726 0.0448726 0.01943 
105 2 10.9747 25.2053 9.31994 0.0100531 0.0158069 0.0117695 
466 2 10.2859 25.4006 9.28775 -0.00244189 -0.0472021 0.112737 
26 2 11.0942 35.9263 -0.952336 -0.011391 -0.0266202 0.115044 
540 2 9.84144 16.4416 3.03975 -0.109456 -0.0115197 0.0134893 
537 2 9.5047 15.9685 2.58822 -0.000709276 0.0666129 0.020737 
28 2 11.4134 34.4434 -9.26042 -0.0296324 0.0978248 -0.105094 
16 1 11.0723 34.9706 -8.38334 -0.0027824 0.0145251 -0.020519 
432 2 -8.00134 16.0095 27.479 0.0517584 0.00663521 0.00667395 
479 1 -11.7224 29.7257 18.9234 0.0212225 -0.00913957 -0.00347035 
483 1 -10.817 25.3711 19.9225 0.0153447 -0.0151005 0.00723126 
471 1 -10.6216 29.523 19.8807 -0.0256994 -0.0179616 -0.0229267 
481 1 -11.3825 26.7919 19.6919 0.0280739 -0.0046769 0.00073419 
469 1 -10.8695 28.066 20.2508 0.0350752 0.0138594 0.0227396 
501 2 -11.1668 32.7002 21.3041 0.103489 -0.036084 0.0975441 
477 1 -10.1982 30.8011 20.6726 -0.0304852 0.000560944 0.00829686 
488 1 -11.3791 31.6814 20.7712 -0.0225302 0.0185218 -0.0196236 
549 1 4.12917 18.5129 26.1875 0.017915 0.0107329 -0.0161267 
566 2 3.91331 17.6237 25.7278 -0.0484496 -0.0422539 0.0165416 
558 1 5.02455 19.2988 25.8882 -0.00881071 0.00767643 -0.0134831 
541 1 5.38092 20.3477 29.3564 0.01481 0.00708785 0.011465 
554 1 3.78539 18.5998 28.9719 -0.0176448 -0.0189625 -0.00138139 
542 1 4.99173 21.4509 29.6352 0.00274753 -0.0176337 0.0263557 
557 1 3.57 18.5262 27.5861 -0.016921 -0.00856782 0.0254619 
547 1 4.6952 18.8796 29.8667 0.00850659 -0.00524345 -0.02012 
543 1 6.37603 20.1119 28.5002 0.0165839 -0.00988269 -0.00778035 
569 2 6.85314 19.1384 28.0158 0.0253128 -0.00216716 -0.145701 
544 1 5.49164 22.6784 29.1296 -0.00875927 -0.0256661 -0.0151531 
532 2 8.79623 23.7681 31.1097 -0.0243852 -0.00230281 -0.0349342 
564 1 8.04252 22.4555 29.3969 0.001543 0.0308467 -0.0214476 
546 1 6.84379 22.5754 28.5455 0.0392244 0.0139788 0.00951426 
545 1 6.44991 21.4626 27.8249 0.0179178 0.0113207 -0.0112512 
573 2 6.74052 22.4213 25.8735 -0.0320944 -0.0458454 0.0173185 
551 1 6.51429 21.4303 26.283 -0.00393882 0.00174225 0.0164975 
561 1 5.67829 20.3249 25.9488 -0.0272545 0.0271469 -0.0105738 
421 2 8.80226 22.0029 28.9271 -0.0954319 0.0187873 -0.0565118 
559 1 4.17124 24.6205 30.4723 0.020935 -0.00278352 -0.00299996 
571 2 3.63914 25.262 31.2144 -0.0540826 0.026386 0.138865 
550 1 4.28232 24.6114 28.9388 0.0141375 0.0019954 -0.00770569 
563 1 5.36953 24.7444 25.9257 -0.0213582 -0.0332403 0.0258712 
177 2 4.75281 25.6087 26.1833 -8.22112e-05 0.0346784 -0.0504677 
560 1 4.95128 23.5291 28.1284 -0.0226816 -0.0188263 -0.00205309 
572 2 4.87271 24.5508 24.8222 -0.0261696 -0.0232678 -0.00696726 
552 1 5.30877 23.6977 26.8051 -0.00799527 -0.0137269 0.0264216 
565 2 5.22596 19.334 31.8923 0.00440282 0.0312731 0.0124092 
568 2 3.76243 23.7196 32.4351 -0.0353582 -0.127058 0.00263059 
556 1 4.01747 23.4592 31.3413 -0.00332273 -0.0164192 -0.0164533 
567 2 3.37236 18.4761 31.3587 -0.0718701 -0.0182379 0.0398696 
553 1 4.21193 19.187 31.2883 0.0189933 0.007957 -0.0205706 
548 1 3.84199 20.8321 31.5183 -0.0212621 0.00289841 -0.021324 
555 1 4.0284 21.8429 30.7189 -0.00358648 0.0198493 0.0124098 
576 2 9.49431 22.2681 30.4784 0.0406365 0.0365953 4.52964e-05 
562 1 9.00965 23.2231 30.2434 -0.0194262 -0.00697618 -0.00082763 
165 1 -11.6837 24.5925 19.1529 0.0182986 0.00250095 0.0262912 
493 2 -10.0135 25.1387 20.7079 0.0196647 0.0631202 -0.0355684 
476 1 -11.7318 27.215 18.3051 -0.00379862 0.0174447 0.00664341 
174 2 -11.7189 22.8682 20.4044 0.0134993 -0.0510799 0.0488841 
249 2 1.92961 28.9953 35.4959 -0.0542633 0.0405073 0.0381345 
484 1 -11.9805 26.3488 17.1446 0.00414059 0.00311982 -0.0019549 
470 1 -11.9233 28.6275 17.9505 0.0196226 -0.00841796 0.0081351 
162 1 -11.9644 23.1933 19.4638 0.0136058 0.0178817 0.0213486 
175 2 -11.2635 24.9389 14.8453 0.0808726 -0.0895163 0.0269334 
246 2 -0.406916 28.6537 35.9983 0.0836498 -0.0702266 0.0589457 
23 1 13.1286 -8.83366 -7.2194 -0.00826457 -0.00488198 -0.00162333 
12 1 13.3534 -9.1331 -5.73677 -0.00492687 0.0137446 -0.00838159 
20 1 13.5625 -10.0077 -7.96648 0.00876445 0.0375136 0.0344572 
208 2 31.3286 9.66218 1.06504 -0.0569108 0.0716422 -0.00791833 
10 1 12.5269 -11.1763 -7.60373 -0.00159779 -0.00533291 0.01877 
4 1 12.3518 -11.4201 -6.10615 -0.0192876 0.00313357 -0.00315824 
6 1 12.7779 -10.3049 -5.28298 0.0150243 -0.0107025 -0.0148095 
194 1 32.9751 11.3449 -0.256305 0.0148579 0.00323352 -0.0177732 
36 2 13.3473 -7.10207 -4.78562 -0.00986193 -0.0544479 0.0275282 
24 1 13.3249 -8.16047 -4.71312 -0.0198856 -0.00133109 0.00117904 
5 1 12.555 -10.5112 -3.79065 -0.00349438 0.0115668 -0.00331621 
22 1 13.377 -8.49232 -3.26646 0.0141783 0.00215139 -0.0122914 
34 2 13.8585 -8.02796 -2.44916 0.018662 -0.0717621 -0.0223396 
11 1 12.6932 -9.51796 -2.6846 -0.00233923 -0.0214236 -0.00720812 
9 1 12.0532 -11.7734 -3.31436 -0.0130696 0.0067718 0.024961 
181 1 34.6345 10.771 1.18155 -0.00752205 0.00195312 0.0166502 
193 1 32.4399 9.43823 1.47206 0.0117394 0.0101286 0.0283142 
187 1 33.24 10.4012 0.906144 -0.030749 0.0161447 0.00426127 
205 2 31.9781 9.69977 3.83079 -0.085884 0.00181309 0.0268254 
195 1 32.5963 9.19312 2.97307 0.0269832 -0.0107115 -0.00407453 
207 2 32.2673 8.02013 2.95762 0.0844799 -0.0336414 -0.0384961 
199 1 35.3554 9.594 5.38554 0.0146052 -0.0111528 0.00129503 
196 1 34.7845 8.98666 4.31649 -0.0040672 0.000209159 -0.00185119 
206 2 31.8868 11.2915 -0.754802 -0.0454764 -0.0982837 -0.0107714 
183 1 35.5427 11.837 0.694694 -0.00590226 0.00879961 -0.0372833 
182 1 34.8486 10.1834 2.61149 -0.00452341 -0.0126202 0.0149835 
188 1 34.0829 9.15106 3.20304 -0.0014662 -0.0209163 0.0356614 
32 2 14.3038 -9.71368 -8.96804 0.0280355 -0.155016 0.0439276 
184 1 35.8326 10.9771 3.08595 0.0301318 0.00599672 0.0292523 
211 2 35.4057 9.12343 6.37852 -0.0198602 0.0860603 0.000992513 
31 2 12.9733 -11.6975 -9.43303 0.0653119 -0.0357294 -0.116747 
19 1 12.2273 -11.87 -8.62232 -0.0187794 0.0120319 0.0036986 
33 2 18.8333 10.1899 16.0085 0.105324 0.0500247 -0.0021009 
287 2 17.6864 9.7664 16.1155 0.0143921 0.0588171 -0.0578446 
343 1 26.705 26.8229 11.4467 0.0257734 -0.00046477 -0.0255512 
351 2 29.1611 23.7377 11.3607 0.100454 -0.0179095 0.0195359 
344 1 27.1016 29.5103 11.607 -0.00652333 0.00135812 -0.00982069 
356 2 26.2199 29.4839 10.9032 -0.00304727 0.0197023 -0.0748683 
340 1 27.2429 25.5623 11.4327 -0.0130755 0.00364701 0.00222758 
189 1 35.1019 12.2711 -0.574671 0.00567529 -0.0150294 -0.00532298 
197 1 33.5706 12.6008 -0.519212 -0.0179397 -0.0125257 -0.0176496 
359 2 26.994 31.5731 11.7133 -0.0446953 -0.122643 0.0204744 
209 2 33.1637 13.2678 -1.23624 -0.00315351 -0.0580782 -0.0672404 
100 2 13.2131 20.0978 -5.55684 0.0221885 -0.0511276 -0.00840778 
108 2 18.6621 23.2797 -3.25502 0.0266775 0.0310986 0.0321682 
485 1 18.0591 22.4402 -3.6504 -0.00237858 -0.00792697 -0.00202265 
87 1 14.6563 21.481 -4.61257 0.0054502 0.00680644 -0.0366268 
99 2 14.5885 22.5145 -4.46552 0.0362179 0.0242099 -0.00536594 
482 1 17.4088 21.795 -4.64863 -0.0142567 -0.015771 -0.00520215 
85 1 13.1231 21.6944 -6.7278 0.0172692 -0.0236386 -0.0167425 
475 1 15.9628 21.2728 -5.17057 0.0129501 -0.0160923 0.0121644 
80 1 13.5265 21.104 -5.70719 0.0138051 -0.0224193 -0.0164911 
498 2 18.4032 21.282 -3.192 0.0552772 0.00342184 -0.0241689 
494 2 16.0649 21.7844 -6.22484 0.00582294 -0.03791 0.0136808 
339 1 29.6078 24.5569 11.9848 0.0129691 -0.00659458 -0.00654172 
179 2 15.6894 29.1711 24.3649 0.0185205 0.0237173 0.0803219 
570 2 33.2929 17.8092 31.1745 -0.0392031 -0.0340601 0.0922868 
349 2 31.4276 23.645 12.8063 -0.0184394 0.0186155 -0.0162464 
337 1 30.9245 24.5079 12.6094 -0.00246572 -0.00396126 -0.0206284 
326 1 29.1634 26.6195 12.9614 0.0276343 0.0129428 0.00831689 
282 2 20.6566 35.0679 30.2285 0.0326545 0.077253 0.0701451 
332 1 28.6698 25.5437 12.1124 0.0148729 0.00854536 -0.0146401 
328 1 28.5299 27.9736 12.8043 -0.0179727 -0.00254077 0.00167579 
334 1 27.2887 28.1683 12.1089 0.0199876 -0.0061898 -0.000800066 
135 2 20.1935 35.1846 31.0216 0.0598438 0.11975 0.138786 
385 2 33.0482 17.4857 31.801 0.0461394 0.00630607 0.0139498 
330 1 28.8153 28.9655 13.6985 -0.00749686 -0.0190566 -0.0109623 
539 2 14.5874 29.1361 24.3702 -0.0640671 0.0269378 -0.00907183 
325 1 30.4304 26.436 13.6124 -0.0228311 0.00896145 0.00552631 
331 1 31.1369 25.3884 13.8305 -0.00331114 -0.00774425 -0.0205391 
329 1 29.8833 28.7996 14.6059 -0.00141723 -0.0303899 -0.00506446 
327 1 30.642 27.6361 14.6693 -0.00211263 -0.00187198 0.0341561 
342 1 31.5221 28.6391 16.8951 -0.00472281 -0.000903228 0.0151151 
333 1 31.5602 27.6447 15.669 0.022462 0.00859279 0.0200315 
354 2 31.6762 28.035 17.7599 0.0586714 -0.0147228 -0.0102089 
353 2 33.5903 26.3389 16.2844 -0.0477711 -0.0724972 -0.089329 
341 1 32.6197 26.5462 15.624 -0.00339562 0.00939609 0.0146653 
350 2 33.208 25.2675 13.8979 -0.0879491 0.0436533 0.0202728 
338 1 32.5036 25.6059 14.5098 0.00795473 0.0101354 -0.0122295 
336 1 28.6197 30.4087 12.9151 0.0306464 -0.0084132 0.000956188 
348 1 28.9526 31.6 13.9421 -0.0058817 -0.0283957 0.0256964 
360 2 28.4122 32.6822 14.095 0.0324296 -0.061053 0.0913634 
347 1 27.4758 30.7204 12.092 -0.0220056 -0.00538475 -0.0101037 
345 1 30.7324 29.6982 16.8016 0.000393903 -0.0123425 -0.00279014 
216 2 30.1345 29.994 17.5559 0.0193041 0.0145341 0.100411 
335 1 30.3339 29.9521 15.3679 0.00392551 -0.00394081 -0.00193593 
346 1 29.9281 31.2655 14.9286 -0.0305132 -0.00170243 0.0129895 
358 2 30.4906 32.1604 15.27 0.0165935 0.0283218 0.0469229 
64 2 44.3116 -10.4133 -3.04802 0.0977031 -0.118411 -0.00671071 
170 2 43.5151 -10.7562 -3.3176 0.0275766 -0.0415164 0.0526421 
35 2 57.7239 -6.50125 -10.6145 0.0125661 0.130385 -0.124315 
434 1 50.7141 -11.1928 11.1992 -0.00889703 0.000114036 -0.00312078 
70 2 54.0601 -11.8921 -0.0396617 0.042468 -0.00388777 -0.0513765 
192 1 39.4873 11.0944 3.28268 -0.00921865 0.0146168 0.0195073 
204 1 41.9853 10.854 2.93909 0.00314642 0.0093676 -0.00624729 
212 2 42.4789 9.86944 2.80937 -0.016686 0.0997701 -0.0577998 
202 1 40.669 11.0871 3.17342 -0.0131462 -0.000667584 0.0072854 
203 1 38.1852 11.0796 3.22515 0.0389783 0.0195222 0.00672727 
186 1 36.9999 11.3127 2.33979 -0.0264936 0.00940847 -0.00957015 
190 1 36.1283 10.7008 4.6658 0.0044525 -0.0468861 -0.0100837 
215 2 38.1366 11.0503 5.47772 0.0787624 0.0256629 -0.0266786 
200 1 37.6185 11.0276 4.5222 -0.0104798 -0.00782898 0.00339932 
467 2 49.0646 -10.8982 6.82351 -0.0228957 -0.000919754 0.0819974 
452 1 48.629 -11.2783 7.7778 0.0301698 -0.0365611 -0.0102177 
451 1 50.0458 -9.52445 8.74606 0.000248743 0.00540073 -0.000717156 
448 1 50.6475 -9.09514 10.013 0.018988 0.0164912 -0.0161978 
460 2 50.3532 -7.81368 9.92577 -0.0478905 -0.03719 0.0389171 
436 1 49.8416 -11.6029 10.0838 0.000132536 -0.0224114 -0.0039619 
442 1 49.5851 -10.8838 8.90044 -0.0144105 -0.0187442 -0.0164509 
463 2 49.6873 -8.92699 7.8174 0.0254544 0.0499553 -0.118317 
440 1 50.9553 -9.64045 11.1815 -0.0129806 -0.00940595 0.00931698 
439 1 51.9093 -11.3673 13.0435 0.00361601 0.0108415 0.0127446 
445 1 51.6903 -9.93243 13.6107 -0.00995781 0.00166895 -0.0147319 
457 2 51.5878 -9.71313 14.6116 -0.0672283 -0.00536484 -0.0124074 
447 1 51.4099 -9.07485 12.5626 0.0185351 0.0364574 0.0305397 
459 2 51.5615 -8.11495 12.9019 -0.0497697 0.0361094 -0.106212 
137 2 51.622 3.87538 17.1025 -0.0530903 -0.0331716 0.0623072 
458 2 52.5788 -11.6634 14.6073 -0.00762546 0.01878 0.0824318 
68 2 53.3507 -11.7758 27.4727 -0.0986941 0.0470075 -0.0258628 
198 1 36.0042 12.5337 -1.69763 -0.0233811 -0.0047893 0.0018739 
201 1 37.2802 12.5594 -0.918675 -0.00870374 -0.00403281 0.0219891 
214 2 38.044 12.8915 -1.62754 0.0383445 0.0162 -0.0228343 
465 2 47.7869 31.3913 10.5488 -0.0211854 -0.0725628 0.0142539 
443 1 47.7484 32.166 11.5761 -0.0144958 -0.00675326 -0.0114589 
455 1 48.3989 35.3517 8.09711 0.0106272 -0.00296723 0.00150442 
444 1 48.2182 34.6554 9.31741 0.00522461 -0.000981791 -0.012353 
456 1 48.1598 33.1966 9.40207 -0.00148325 0.0105496 -0.00559239 
468 2 47.2224 32.5431 9.2361 -0.031833 0.0134583 0.0336635 
437 1 49.5145 34.1569 11.058 0.00319706 0.00152878 0.000966437 
454 1 48.6301 32.9123 10.7801 0.0212331 0.0238936 -0.0222305 
438 1 49.2618 35.1877 10.3837 -0.00201776 -0.00231495 0.00827169 
191 1 37.8521 12.5749 0.499803 0.0116232 0.019007 -0.00420897 
213 2 39.1043 12.7961 0.625861 0.115194 0.0445408 0.01064 
185 1 36.8659 12.0119 1.33217 0.0166079 -0.00563844 0.00576126 
133 2 36.1064 13.0561 -2.67735 -0.0180232 -0.0519977 -0.0102502 
453 1 48.0601 31.8934 12.8035 0.0102622 0.0128296 0.00878278 
450 1 48.4007 31.3703 13.9828 0.0148145 0.013037 -0.00543035 
462 2 48.743 31.3169 14.933 0.134295 0.0089269 -0.00691778 
461 2 50.969 32.3335 13.3285 -0.0251256 -2.01303e-05 0.0545126 
435 1 50.5938 34.3791 12.2534 0.00142802 -0.0257209 -0.0165323 
441 1 51.0084 33.6453 13.1463 0.0205209 -0.0154553 0.0139009 
449 1 51.698 34.4705 14.4298 -0.011205 0.00198998 0.00140405 
446 1 52.3937 35.5555 13.876 0.0219708 0.0158193 -0.00502976 
497 2 38.6583 23.107 17.2204 0.0401272 0.00900694 -0.00270912 
464 2 51.0149 34.6709 15.358 -0.0164557 -0.0667792 -0.0484442 
61 2 44.9852 25.7123 33.0305 0.0779677 0.00371175 -0.0379126 
72 2 42.5885 17.5153 30.6297 0.0165488 -0.020078 0.00360939 
63 2 39.9033 22.8699 28.0968 0.0144515 0.0169479 0.0275112 
51 1 40.7487 22.5067 28.4809 0.00834339 -0.0146848 0.00525425 
52 1 41.0564 21.2419 28.3857 0.0152614 0.00172454 -0.00644397 
67 2 41.4989 19.5306 27.1741 0.00197519 -0.0475743 0.0130234 
55 1 41.7114 19.9549 28.2052 -0.00482478 -0.00969594 0.00234088 
59 1 42.5685 18.5284 30.2218 -0.00779815 0.00648725 0.0264642 
46 1 42.5842 19.5998 29.2656 0.00345454 0.00770808 0.00564582 
40 1 42.7253 20.7405 30.1443 -0.00902117 -0.00920072 0.0114815 
48 1 44.9788 17.6883 30.9641 0.0236798 -0.00268714 -0.0100743 
44 1 42.0067 22.9486 29.1791 -0.00282509 -0.0243283 0.0132517 
49 1 42.0168 24.0279 30.0062 0.0198549 0.00680849 0.00605358 
56 1 43.8016 18.8352 31.1284 -0.00746206 0.0227403 -0.00346069 
38 1 42.7106 22.0568 29.9932 -0.0279872 0.00561175 -0.00494549 
60 1 46.1433 18.4116 31.4448 -0.00482112 -0.0114173 -0.0129838 
42 1 43.8137 20.1255 31.2282 0.00682059 -0.00915909 -0.0086993 
37 1 43.3479 22.666 31.2949 -0.00669758 0.0124547 0.000502865 
39 1 44.6285 22.3478 31.7143 0.00104989 -0.00482686 -0.013098 
41 1 44.8229 20.8896 31.9886 -0.00466514 0.0120833 -0.00568464 
54 1 46.9096 19.2251 31.8697 -0.0192262 -0.00124061 0.00525786 
45 1 45.5719 23.0424 32.7189 -0.0232797 0.0203056 0.0244546 
58 1 46.2068 20.5496 32.4377 -0.0103418 0.00974842 0.0171966 
47 1 46.9239 22.5652 32.7736 -0.000490736 0.0132948 0.0102599 
57 1 47.4404 21.3371 32.4286 0.00577951 -0.00724388 -0.0151922 
69 2 48.0735 19.2295 31.8177 0.00564884 0.0095212 -0.0996176 
66 2 48.4124 20.7356 32.6455 -0.0287112 -0.103686 -0.00125626 
62 2 43.6073 26.7201 33.299 0.0320632 0.0890042 -0.0402518 
50 1 43.254 25.1629 32.0218 0.0167923 0.00953256 0.00455794 
65 2 45.4589 24.1197 32.7117 -0.0302969 -0.0562377 0.0152757 
53 1 44.0573 25.8587 32.7842 -0.00755432 -0.0233318 0.020247 
43 1 42.7099 24.1863 31.1831 0.0138475 -0.00526502 -0.0189949 
433 1 51.0567 35.9458 12.0537 0.00403821 -0.0416652 -0.0336684 
76 1 82.5664 -8.64351 -0.677907 0.000695883 -0.0160521 0.00567938 
78 1 83.4136 -7.5221 -0.438471 -0.00335883 -0.00484187 0.0125231 
74 1 82.8679 -9.72328 -1.65953 -0.00861155 0.00563341 0.033903 
355 2 82.7266 -10.5966 -1.05918 -0.0836488 0.0168925 0.00606019 
84 1 83.4128 -6.99862 0.931978 0.0239418 -0.00385804 -0.0193084 
91 1 80.4647 -9.79419 0.297521 -0.000263861 0.00205695 0.00660853 
95 1 82.1569 -7.16825 1.71925 -0.00839525 -0.0235554 -0.00635035 
92 1 80.972 -7.46406 0.881718 -0.00891449 0.00729715 -0.0135858 
104 2 80.0862 -6.74066 0.801529 0.00857316 -0.00347569 -0.0146308 
88 1 79.838 -10.6103 0.646793 -0.0216683 0.0136185 -0.0320607 
82 1 81.3267 -8.57251 -0.00214771 -0.0235353 -0.00915707 0.000893686 
107 2 82.3233 -7.30209 2.81217 0.0144592 0.00997458 -0.0405505 
103 2 79.2427 -11.5535 0.735603 0.0271312 0.0026552 -0.0272751 
97 2 83.8484 -11.3431 -3.00224 -0.0921137 0.0491347 -0.0532701 
248 2 77.5368 -0.668152 18.3676 0.0222551 -0.102603 0.0321878 
176 2 77.9588 -0.934863 19.068 0.0774128 -0.0304079 -0.046113 
284 2 75.5184 10.5883 24.2752 -0.0217965 -0.0794297 0.153092 
210 2 75.9982 10.3113 24.3177 -0.00383577 0.00711459 0.0495789 
277 2 71.0085 -12.0051 26.4053 0.0398421 -0.0292615 -0.127132 
372 1 79.5321 23.4693 9.51628 -0.000984752 -0.00710383 -0.00365583 
384 1 80.7933 23.6172 8.90046 0.015239 0.0192099 0.0260008 
178 2 83.4469 26.0795 10.8684 -0.0676927 0.0174634 -0.044077 
362 1 77.7919 20.685 11.6624 -0.0180624 0.00520949 0.0188362 
370 1 76.8461 22.5004 10.1657 -0.0111221 -0.0197769 0.0107937 
379 1 75.536 22.1274 10.7814 0.0123152 0.00953837 -0.0299006 
376 1 75.0748 20.958 11.5068 -0.00718708 -0.0061173 -0.0106558 
395 2 76.084 24.4907 9.15928 -0.0166915 0.00517391 -0.0466678 
380 1 77.0659 23.7887 9.53565 0.0142287 -0.0026856 -0.0200126 
364 1 77.9636 21.8635 10.929 0.0209716 -0.00797006 -0.0399227 
366 1 79.2808 22.4498 10.504 -0.0239551 -0.00281822 0.0329967 
390 2 83.4397 24.34 9.37147 0.0453616 -0.0410047 -0.0410196 
365 1 80.5395 21.726 11.0024 0.0198601 -0.00120727 -0.0162447 
371 1 81.8367 22.2773 10.8353 -0.00368677 -0.00500947 -0.0157953 
382 1 81.954 23.1834 9.70863 0.0161957 -0.00610856 -0.01678 
167 1 82.7749 25.2337 11.1663 0.00132149 -0.0258667 0.0112073 
317 2 75.1563 26.2109 11.2488 0.0354595 -0.0416456 0.0190242 
312 1 68.0174 29.2962 9.41129 0.0119648 -0.000491077 -0.00168352 
324 2 68.7047 29.3861 8.56178 0.0698522 0.0142723 -0.0165596 
311 1 68.2488 29.6582 10.761 -0.00329103 0.0170312 -0.00324992 
391 2 74.6312 22.4698 10.2688 -0.0117783 -0.00259559 0.0867939 
392 2 78.2716 25.1052 8.57888 -0.0182537 0.0205183 0.0587999 
383 1 78.3145 24.2061 9.04354 -0.0301385 -0.0260073 -0.0220057 
164 1 82.946 24.0152 10.3087 0.0033834 0.0155035 -0.00559076 
396 2 81.0901 23.991 7.74915 -0.0151954 -0.0119883 0.0945415 
368 1 76.297 20.4318 11.8651 -0.000691526 -0.00872401 -0.0197449 
393 2 83.8399 22.2863 11.8893 0.0134423 -0.0226128 -0.0671342 
155 1 83.9087 25.1065 17.7174 0.00687267 -0.00642462 0.00204783 
180 2 81.4848 29.1469 13.1188 0.095514 0.0493632 -0.0428331 
389 2 81.9614 18.175 13.5657 0.0642856 -0.0192084 0.0255031 
386 2 79.9679 17.1261 13.7415 0.0417521 0.0302505 0.0294898 
306 1 71.4263 23.7813 15.0681 -0.00407396 0.00116961 -0.00217065 
322 2 70.8644 22.8489 15.562 -0.0451327 -0.0672811 0.0158791 
373 1 77.1035 18.5779 12.532 -0.0140785 -0.0355476 0.0149588 
375 1 75.9238 18.9689 12.1274 0.0351761 0.000567513 0.0122706 
575 2 74.0927 29.3443 29.2418 -0.0246491 -0.045392 -0.0920968 
255 1 72.9381 31.9548 26.429 0.00393179 -0.0019241 0.0284858 
367 1 78.3949 18.8056 12.7273 0.00511937 0.0156183 0.000816527 
257 1 73.4676 30.7415 26.3437 -0.00419555 0.000615511 -0.0194456 
374 1 79.6764 18.0472 13.132 -0.0125172 -0.0109651 -0.0151169 
377 1 81.0359 18.4727 13.0826 -0.00480659 0.0128843 -0.00133227 
159 1 79.7314 21.8252 15.3239 -0.00197311 -0.00858685 0.0103256 
152 1 80.7778 22.5305 14.6316 0.0137593 -0.0266823 0.000224883 
145 1 82.189 22.0143 16.2345 -0.0156373 -0.00418742 0.0163577 
146 1 81.8272 22.7415 15.1009 -0.0317935 -0.0126117 0.0160269 
157 1 79.9929 20.6523 15.901 -0.0175635 -0.0134503 -0.0210595 
151 1 81.2886 20.9563 16.5543 0.0105296 0.00353129 -0.019831 
147 1 82.9993 22.8272 17.136 0.0227475 -0.0223846 0.031712 
171 2 79.0148 19.8884 15.6364 -0.0339076 -0.0575976 0.0253753 
148 1 82.3979 23.8578 14.4086 -0.0419701 0.0202197 -0.00758395 
361 1 78.8803 20.164 12.2339 -0.0120226 -0.0142285 -0.0062537 
169 2 78.8726 22.3583 14.8749 0.0597967 0.040535 0.06758 
158 1 81.4559 20.7616 18.1571 -0.0136977 -0.0136801 -0.0247992 
369 1 81.179 19.9047 12.8074 0.0193793 -0.00341972 -0.0083687 
160 1 80.4303 23.7517 13.5089 -0.00834132 0.00526542 -0.0117614 
495 2 83.0174 20.3518 13.515 -0.0317964 0.0421903 0.0757671 
378 1 82.4911 20.71 12.8095 -0.00842622 0.0176356 -0.0155731 
321 2 66.0065 27.1054 15.8178 0.0200735 0.0443097 0.0394394 
323 2 66.3207 25.3993 15.1263 0.0661126 0.0601588 0.0523092 
300 1 66.7501 26.4383 15.1749 -0.00260184 0.00597045 -0.00539464 
293 1 68.1251 26.4193 15.2171 0.0237363 0.00691818 0.0045079 
308 1 68.6681 29.7583 12.1941 -0.0102407 0.01437 0.0120027 
307 1 68.8656 30.7164 14.3083 0.0260783 0.00605771 -0.000724513 
298 1 69.14 29.4384 13.5381 -0.0126419 -0.0121124 -0.0270678 
294 1 69.4334 27.0057 14.8654 -0.020311 0.018895 0.00172268 
292 1 69.9103 28.1125 14.2848 -0.000546196 0.0115013 -0.0222471 
296 1 71.2378 29.7851 14.3009 0.00765372 0.0113031 0.0117524 