ITEM: TIMESTEP
530000
ITEM: NUMBER OF ATOMS
576
ITEM: BOX BOUNDS pp pp pp
-1.2000000000000000e+01 8.4000000000000000e+01
-1.2000000000000000e+01 3.6000000000000000e+01
-1.2000000000000000e+01 3.6000000000000000e+01
ITEM: ATOMS id type x y z vx vy vz 
522 1 -10.8127 -8.94344 -8.85317 0.00679459 0.00396801 0.00687611 
534 2 -10.3099 -8.47982 -10.7226 -0.0276571 0.0292237 0.0433118 
525 1 -9.95547 -8.4213 -9.53994 -0.0156916 0.029612 0.0403507 
515 1 -9.06063 -7.70136 -8.62676 0.00553565 -0.0142541 -0.00778708 
513 1 -11.1166 -9.40334 -7.57928 -0.000374614 -0.0168895 0.00705709 
509 1 -9.63431 -7.34668 -7.26901 -0.00847822 0.00186794 -0.000976068 
507 1 -10.3834 -8.28055 -6.79775 0.0181002 -0.0110156 -0.0129811 
510 1 -9.19664 -6.44203 -6.32283 0.00270584 -0.0185791 -0.0174997 
455 1 -4.92693 -9.03395 -10.236 0.00714418 0.0191876 -0.00770763 
468 2 -6.21864 -7.90146 -7.41658 0.0483015 0.0887292 0.0211122 
505 1 -10.8886 -8.21762 -5.51438 0.00640741 0.0139034 -0.00816429 
452 1 -4.73518 -10.2929 -10.9037 0.00710455 0.0458658 -0.00542123 
521 1 -11.6148 -10.7296 -7.06478 -0.0287046 0.0023859 -0.0150108 
467 2 -5.53504 -8.39551 -10.8153 -0.000817482 0.0436344 -0.0905544 
533 2 -11.8299 -11.464 -7.82344 -0.00160908 -0.0613369 -0.022578 
456 1 -5.18898 -7.99467 -7.75765 -0.0176836 0.0058012 0.0218988 
435 1 -1.53252 -10.0096 -7.70741 -0.0215026 -0.00156393 -0.0181506 
441 1 -0.334463 -9.178 -7.19964 -0.0223803 0.0208082 0.00253549 
433 1 -1.36208 -11.4361 -7.90746 0.0097457 0.00542327 0.0123469 
439 1 0.143008 -11.8409 -7.8582 -0.0257636 -0.0144878 -0.00255147 
436 1 -3.37631 -11.084 -9.143 0.00237044 0.00024414 0.00168263 
437 1 -2.5485 -9.1802 -7.9656 0.0319019 0.0135319 0.0275253 
438 1 -3.64033 -9.75795 -8.66523 0.0328952 -0.0181434 -0.0297493 
443 1 -2.73556 -7.81265 -7.39644 0.00405414 -0.0208473 -0.025199 
454 1 -4.12813 -7.30843 -7.11871 -0.0129509 0.00942736 -0.0191868 
444 1 -4.78622 -8.97263 -8.80679 0.0414979 -0.012942 -0.0144478 
450 1 -0.457734 -7.89106 -6.58034 0.00396698 -0.00853557 -0.0331351 
453 1 -1.66725 -7.28691 -6.5409 0.0218387 0.00742034 0.0201544 
465 2 -2.16698 -6.2546 -6.35349 -0.00312076 -0.0208919 0.0473908 
462 2 0.360262 -7.4617 -6.24385 -0.0746952 -0.10715 0.0512083 
466 2 -4.06944 -6.77458 -6.15855 0.00181987 -0.0114826 -0.0331767 
511 1 -11.4874 -9.54937 -5.09872 -0.00274319 -0.0123315 0.0232707 
446 1 0.795937 -11.2075 -6.70207 0.0109935 -0.0378864 -0.0236789 
449 1 0.900565 -9.72048 -6.71033 -0.0191531 0.0153051 0.0041153 
512 1 -11.2374 -7.19386 -3.4582 0.0160715 -0.00749733 3.36619e-05 
538 2 -8.32459 -7.0129 -10.0169 0.0859549 0.0880098 0.119126 
526 1 -8.13988 -6.7174 -8.9459 0.0103328 -0.00202042 -0.00261748 
516 1 -8.16698 -5.5356 -6.79917 -0.0232661 -0.00473559 0.0237435 
528 1 -8.2922 -5.40134 -8.27171 0.0266844 0.00149798 -0.00544663 
520 1 -10.8674 -6.14919 -2.54772 0.00297061 0.00156557 0.00947963 
508 1 -9.65541 -6.08107 -5.04737 0.00515241 -0.0117348 0.0150567 
506 1 -10.7433 -7.07258 -4.69326 -0.0208725 0.0127094 0.0191251 
461 2 1.41059 -9.11795 -5.98329 -0.0326277 -0.0723335 0.0265325 
527 1 -7.73494 -4.58599 -5.76153 0.00806689 0.000621774 -0.0234915 
514 1 -9.90218 -4.71272 -4.41392 -7.70696e-05 -0.0052718 0.0213119 
523 1 -10.4611 -4.88026 -3.05491 -0.0107377 0.0216768 -0.00241673 
535 2 -10.3973 -3.97472 -2.40374 0.115846 0.09911 0.0611583 
536 2 -8.23523 -3.03256 -4.44379 0.0599091 0.0376342 -0.045432 
524 1 -8.74215 -3.89119 -4.8467 0.00805233 0.0286708 -0.0131995 
250 2 -7.00697 3.4315 2.46817 0.0220624 0.0957507 -0.0401204 
442 1 -4.27952 -11.5255 -10.1148 -0.000240548 -0.0118015 -0.0180051 
210 2 -8.0704 -9.67518 -5.9692 0.0024756 0.0586518 -0.0141854 
458 2 0.478193 -11.8466 -5.89634 0.0174243 -0.0580339 0.0112197 
518 1 -11.7092 -10.9944 -5.64284 0.0244979 -0.0126689 0.0189235 
532 2 -11.4104 -6.04423 -1.66833 0.0138593 -0.0258439 0.057645 
519 1 -11.9643 -8.36621 -2.88293 0.0173518 0.042454 0.00413201 
425 2 -7.48993 0.522287 15.4836 0.0263541 0.0836471 -0.0399905 
405 1 -8.98267 1.70548 17.1746 0.00661365 0.00271768 -0.0188317 
397 1 -10.9854 2.76288 16.1396 -0.0245993 -0.0222494 -0.0107738 
403 1 -10.311 2.16429 14.8949 0.0015475 -0.0158133 -0.0144754 
422 2 -9.26381 0.50765 14.188 -0.0176996 0.0558335 -0.0349014 
410 1 -9.61972 0.973102 14.8644 -0.0141143 0.00813848 -0.0155725 
417 1 -9.03428 1.09397 19.7553 -0.0130948 -0.00601931 0.0314259 
374 1 5.14545 -11.738 20.0716 -0.00150108 -0.00821543 0.00028172 
413 1 -8.54963 0.789739 16.0246 -0.0152683 -0.0122127 0.00142792 
409 1 -11.1338 2.63148 13.6567 -0.0105954 -0.016217 -0.0081569 
399 1 -10.4705 2.39634 17.3493 -0.0108028 -0.00689247 -0.0273001 
386 2 5.68667 -10.7917 19.9149 -0.0237061 0.00106461 0.132787 
411 1 -11.9943 3.72399 13.7671 0.0169208 -0.0026354 -0.0138619 
407 1 -10.4793 1.21545 19.615 -0.0131168 -0.0120866 -0.0319074 
401 1 -11.097 1.98702 18.5138 -0.0121921 0.00712616 0.011196 
414 1 -8.56055 1.54876 18.4677 -0.0145953 -0.00547016 0.0157236 
426 2 -8.38669 1.10506 20.6669 -0.0881524 -0.0684948 -0.0440574 
429 2 -11.1094 0.464876 20.0976 0.00978872 -0.00609803 -0.0190533 
457 2 1.02385 34.4836 -7.65183 -0.0518355 0.0146553 -0.0182694 
440 1 -1.94674 34.7104 -9.50792 0.0119355 0.0157153 -0.000402016 
445 1 0.241256 34.8937 -8.29915 -0.0126715 0.0104096 0.0356273 
85 1 8.27534 24.4205 -12.0004 -0.0148271 -0.00755497 -0.0384787 
99 2 8.56502 24.5785 -11.082 0.0393757 -0.0981322 -0.0303766 
460 2 -2.77801 33.2281 -10.9297 -0.0188819 -0.0455004 -0.0171446 
463 2 -5.05318 34.2607 -10.3571 0.0524258 -0.0657043 -0.0365085 
451 1 -4.18779 34.8638 -10.3165 0.0147705 -0.012236 -0.000720996 
448 1 -2.98096 34.206 -10.4933 -0.0186006 -0.0073593 -0.0182088 
459 2 -0.329654 33.3736 -10.2317 0.0431178 -0.0678411 0.0819914 
447 1 -0.606588 34.3235 -9.32653 0.0130576 -0.0313786 0.00654899 
434 1 -2.49951 35.8523 -8.56991 0.00836905 -0.0047628 -0.0142101 
382 1 -0.657765 35.1166 17.9633 0.0101171 -0.0164288 0.0117058 
495 2 3.40527 34.3565 16.4162 0.0115305 -0.146903 0.0973724 
381 1 1.50495 34.6195 17.0123 -0.0235738 0.000865859 -0.00582217 
378 1 2.9277 34.7177 17.2447 0.0106994 0.0169558 -0.0318711 
393 2 1.63834 33.5785 16.5108 0.0177643 -0.0628433 -0.00750669 
371 1 0.638492 34.8397 18.2018 0.0248124 -0.00703456 -0.0151742 
390 2 -1.25267 35.2955 16.9101 0.10274 0.0792771 0.0685921 
162 1 -11.5746 16.5708 25.8248 -0.000742241 0.00511037 0.0192697 
388 2 2.40808 32.2831 25.0434 0.000402097 0.109858 0.0305242 
80 1 8.85035 26.3428 34.4115 0.0294865 0.00835615 -0.00843444 
384 1 -1.64448 35.5451 18.9296 -0.00508939 -0.0172775 0.00422475 
395 2 -3.22627 34.3019 21.5691 0.0308903 0.0489414 -0.022202 
372 1 -1.00668 34.9699 20.1776 -0.00725455 -0.00355052 0.0228501 
383 1 -2.10707 34.7822 21.1827 -0.0213849 0.0096089 -0.0122844 
380 1 -1.46416 34.4451 22.6403 0.01309 0.0245394 0.00566891 
392 2 -2.40533 34.1699 23.2012 -0.0348626 -0.0115031 0.038678 
391 2 -0.330738 32.7591 24.4 -0.0135692 0.0147625 -0.0116268 
377 1 4.79686 35.0574 19.2807 0.00252903 -0.00947684 0.0148046 
369 1 3.45672 34.8157 18.6903 -0.000172101 0.0181427 -0.000355759 
385 2 4.74592 32.4094 25.3351 -0.0741198 0.00337543 0.0777878 
365 1 1.1325 34.9049 19.5334 0.0295335 0.00398688 0.00467859 
362 1 2.1209 34.5742 22.3663 0.000316541 -0.00140431 0.0257471 
376 1 1.94237 32.7423 24.1508 -0.0147796 0.000374496 -0.000896388 
368 1 2.74024 33.8386 23.5919 -0.0178752 0.00955211 -6.04218e-05 
366 1 0.403625 35.0815 20.4761 -0.0203173 -0.000968636 0.0289047 
364 1 0.921355 34.5749 21.8146 0.00666605 -0.0167535 0.0170523 
379 1 0.670893 33.0785 23.9454 -0.00627997 -0.0103285 0.0122114 
370 1 -0.0749986 34.0126 22.9298 -0.0151362 0.00845617 -0.0148054 
375 1 4.04216 34.2776 24.302 -0.00972224 0.00661569 0.0119208 
361 1 2.88686 35.5 21.2475 -0.0245544 -0.0156656 -0.010744 
363 1 2.42201 35.5086 19.8992 0.00956771 0.00917091 0.000647838 
373 1 4.93634 33.4084 24.9658 0.0223598 -0.00914312 0.00321051 
387 2 4.44381 35.3799 23.9661 -0.0273837 -0.0343262 -0.0715958 
174 2 -10.3223 15.7984 26.9354 -0.138572 -0.0619733 0.00606965 
165 1 -11.2235 16.1264 26.9086 -0.0141967 0.00571635 -0.0108753 
100 2 9.46694 27.0069 33.7457 0.0978621 0.0130905 -0.0435542 
173 2 -11.0997 18.3733 23.6045 0.07104 -0.0258538 0.016324 
389 2 5.68844 34.7016 18.6791 -0.0229943 -0.027181 -0.0678324 
87 1 8.84447 25.4614 35.4273 -0.0309059 -0.0175768 -0.0163207 
396 2 -2.64973 35.686 18.8091 -0.0807609 -0.0464743 0.0216388 
367 1 4.36339 35.9696 21.2501 -0.00746367 -0.00632247 -0.0103388 
137 2 22.2121 -10.4515 0.337014 -0.00382834 -0.0424416 0.0306971 
282 2 30.1357 10.8162 11.5318 -0.0516479 0.0314615 0.0557141 
176 2 16.1773 6.74222 -5.52678 0.0852985 -0.0718974 -0.0424995 
105 2 25.361 -10.2499 -0.928659 -0.0362053 -0.0462752 0.00876022 
125 1 21.7405 -11.2629 1.27799 -0.00576229 -0.0148006 0.00991605 
138 2 23.0491 -8.83534 2.79377 -0.073992 0.00805456 0.0718914 
117 1 21.935 -10.9607 2.64214 -0.00886226 0.00306151 0.00150704 
126 1 22.6303 -9.87465 3.30595 0.0126877 0.00354689 -0.00339869 
111 1 21.0693 -11.5053 3.65435 0.00638669 -0.0068919 0.0106077 
129 1 22.4466 -9.67226 4.73721 0.00467987 -0.0124405 0.0025491 
141 2 21.6117 -8.72442 4.78277 0.0180783 -0.0202235 -0.0124967 
119 1 22.6295 -10.9774 5.43785 0.00233731 0.00467641 0.0336607 
130 1 23.1972 -10.8404 6.84283 -0.0284006 0.00609972 0.0359525 
142 2 24.1251 -10.1428 6.53472 0.0466072 0.0048947 0.0472931 
134 2 20.9349 -11.6017 -0.23611 -0.0205128 0.0590866 0.000686956 
135 2 30.9597 10.5584 11.5029 0.00517906 -0.000847683 -0.123146 
29 2 26.1762 0.66774 16.9998 0.0282738 -0.018973 0.105265 
17 1 25.2965 0.771299 17.6518 0.0280721 0.00833713 0.0159951 
35 2 21.0454 2.98833 25.4223 0.0798023 0.051722 -0.0465274 
499 2 35.3243 11.4409 18.184 0.00736658 -0.0283017 0.0442908 
28 2 18.9873 -1.13297 21.318 -0.0189233 0.0327303 0.0592086 
31 2 18.2269 -1.5745 23.0473 0.0693355 -0.00124228 0.0772575 
16 1 18.4969 -0.824996 22.2032 0.00723141 0.00845908 -0.0105656 
19 1 19.3086 0.161592 22.454 -0.00819437 0.0282109 -0.00247573 
25 2 21.2502 -2.13665 21.0605 0.112075 0.0178258 -0.0128909 
27 2 23.2277 -0.866596 21.4112 -0.00395312 -0.019393 -0.0213815 
8 1 22.1762 -0.543899 21.1241 0.00272515 -0.00963583 0.0232013 
15 1 21.8547 -1.59785 20.165 -0.00518302 0.000745502 -0.0147057 
13 1 22.1769 -0.719631 18.9486 0.0145005 -0.0229714 0.02382 
2 1 21.8817 0.854281 20.6411 -0.00904438 -0.0131635 0.0170757 
7 1 23.0574 0.462949 18.7897 -0.0232527 0.0159762 -0.0198158 
14 1 24.3157 -0.144765 17.9449 -0.00738054 -0.0140416 -0.023331 
10 1 20.2596 1.28881 22.8309 0.0198457 -0.0119384 0.0118494 
4 1 21.4646 1.68387 21.943 0.00065841 0.0165611 -0.0125724 
1 1 22.943 1.26218 19.8425 0.0158088 0.0102735 -0.0380912 
3 1 23.5796 2.6592 20.305 -0.0218341 0.0227545 0.00972521 
6 1 21.7847 3.00487 22.1251 0.0369764 0.0161096 -0.016361 
5 1 22.8477 3.36811 21.2108 0.00687441 0.00228186 0.0100529 
12 1 21.2099 3.798 23.4858 -0.0122903 0.0267699 0.00222513 
11 1 22.8854 5.04714 21.5265 0.00978088 0.0171498 0.0295069 
24 1 22.0168 4.95353 23.7736 0.00254921 0.00269605 -0.004086 
22 1 22.9198 5.55014 22.722 0.0161665 -0.0113679 -0.0132771 
21 1 23.8855 5.47892 20.4892 -0.0123838 -0.00207965 0.0125207 
33 2 24.0343 6.5857 20.4079 -0.00603416 0.0821908 -0.0309147 
36 2 22.6548 5.37901 24.7179 0.0401766 -0.00174481 0.0230878 
26 2 24.2063 -1.24552 17.7269 0.00400917 -0.054619 0.0292185 
9 1 24.6775 3.31294 19.3895 0.00875537 0.0215592 -0.00039063 
18 1 24.3609 4.48671 19.8355 0.0180979 0.0222584 0.000582182 
30 2 25.4067 3.00895 18.6929 -0.0135789 0.0794955 -0.00479454 
34 2 23.2543 6.56491 22.621 0.0573316 -0.0263466 0.00706913 
32 2 20.2733 0.863383 25.0673 -0.13102 -0.0579997 0.0593238 
23 1 20.6666 2.98548 24.5204 0.00181484 0.0208157 -0.00106492 
20 1 20.4997 1.63011 24.2656 0.00304029 -0.0166322 -0.0177767 
133 2 17.3551 32.9251 1.53292 0.0506228 0.0980141 -0.047057 
136 2 16.2309 32.8654 4.23221 0.00456925 -0.0633646 0.0264101 
124 1 17.0272 33.5895 4.54713 -0.0408225 0.0234647 -0.00612756 
121 1 18.9849 34.1608 1.50955 0.0160006 -0.00646103 0.0204776 
123 1 18.0584 33.4822 2.14808 -0.00820768 -0.0202043 0.0259274 
118 1 18.7072 33.9589 6.49783 -0.0112153 -0.0122804 0.00417585 
177 2 17.0066 33.3373 6.96041 0.118236 -0.00556677 -0.0124034 
116 1 17.871 33.9499 3.67469 -0.0118597 -0.00676547 0.00118641 
110 1 19.1609 34.8613 4.19752 -0.00359519 -0.00763848 0.019157 
127 1 17.6889 33.5253 5.94441 0.00282815 0.00865998 0.00608334 
112 1 19.7284 34.6347 5.29611 0.00702353 -0.00950949 -0.00696385 
109 1 20.0562 35.6455 3.25929 0.00851707 0.012296 0.00418903 
115 1 20.0371 35.1367 1.86826 -0.000613731 -0.0195447 0.0139643 
139 2 18.8849 34.0438 7.66874 -0.0790082 -0.0381366 0.00897849 
128 1 21.4046 34.6283 9.5577 0.00430675 -0.00770816 -0.0230691 
140 2 22.335 34.9708 9.97832 0.0165376 0.0695213 0.0232674 
143 2 20.8035 34.6073 10.4422 -0.0143444 -0.0678871 0.0149987 
131 1 21.282 34.5734 8.21645 0.0184028 0.00301206 0.026866 
114 1 21.0419 35.0366 5.61026 -0.00501854 0.0247436 0.0134145 
122 1 20.6976 35.9624 0.79471 -0.0110331 0.00359353 0.0268892 
120 1 21.7836 34.8689 6.9085 -7.09967e-05 -0.0106751 -0.00353737 
144 2 23.2064 35.7446 8.32575 0.148026 -0.132963 0.130484 
132 1 22.742 35.9727 7.32416 0.00687941 -0.0145527 -0.00419025 
113 1 21.6677 35.8543 4.81721 5.81095e-05 -0.0159654 0.00211393 
494 2 34.5379 17.9746 16.74 -0.0694941 -0.0411274 -0.0212483 
493 2 33.9897 15.033 21.6793 0.0310805 0.0828385 -0.144303 
481 1 35.0717 14.5965 21.7979 0.00229772 0.00267715 -0.0232929 
482 1 35.4754 17.2892 16.5806 -0.0142583 0.017366 0.0110123 
496 2 35.5171 14.7614 22.9406 -0.0962524 -0.0419729 -0.0139967 
483 1 35.433 14.1133 20.5653 0.00759998 -0.0127705 -0.000613137 
498 2 35.7945 15.3666 15.4154 0.107148 -0.0115859 -0.0075427 
108 2 35.3772 18.8448 17.8416 -0.0267545 -0.00791071 0.0735002 
421 2 14.0717 12.6131 34.049 0.0421577 0.0597113 0.0571461 
537 2 48.3431 -8.65606 13.4943 0.020222 -0.0247158 0.0572807 
486 1 43.751 11.4256 16.0224 0.0052348 0.00157444 0.00431744 
478 1 38.5949 11.7449 18.695 -0.00606274 0.00211572 0.0151862 
540 2 48.0458 -8.53778 13.1007 0.0295815 0.0508337 0.00596042 
503 2 39.6484 11.2858 18.6173 -0.0835295 -0.0445093 0.096147 
487 1 37.368 11.6838 18.2753 0.0116931 0.0108013 0.00680589 
556 1 48.0552 11.6997 26.8092 0.0254915 -0.0117122 0.0108619 
562 1 48.736 9.36186 33.0061 0.0462606 0.0200378 0.021252 
569 2 46.1499 6.81152 27.2098 0.0769521 -0.0106626 -0.118699 
557 1 45.5412 6.13937 30.2872 0.0234221 -0.0113543 0.00552558 
541 1 46.927 8.31868 29.0672 -0.00227954 -0.00831179 0.00413621 
554 1 45.4477 6.02221 28.8148 0.00294906 -0.0156846 -0.000192575 
542 1 47.3314 9.64439 28.6225 -0.00148131 -0.00104953 0.000468215 
547 1 46.1509 7.3133 28.3099 0.00492116 -0.0309063 0.00428904 
567 2 49.7102 9.12516 26.9072 0.00881557 -0.0341792 0.0721826 
574 2 48.7475 8.67973 33.8441 -0.0312997 0.0821816 0.0843487 
555 1 47.82 10.3515 26.1235 -0.0319209 -0.00906427 -0.0198952 
548 1 47.4656 9.46708 27.315 -0.0191729 0.0160834 0.00928095 
553 1 48.7543 9.19677 26.4577 -0.00538539 -0.000250411 0.0122152 
565 2 48.5356 8.06527 25.9415 0.00080512 -0.0429942 0.0384911 
544 1 48.0786 10.4042 29.2655 -0.0008806 -0.0103704 0.0101569 
550 1 48.7047 11.6525 28.6906 -0.0332717 -0.0177961 -0.0210591 
566 2 44.7774 5.27099 30.6255 0.00126742 -0.0495663 0.0259848 
543 1 47.0619 8.04164 30.4982 0.0115249 -0.0110261 -0.0116067 
551 1 47.4234 8.91464 32.5615 0.0017384 -0.00128295 -0.00331869 
545 1 47.1998 9.41003 31.2438 0.0137962 -0.0147267 0.00867048 
561 1 46.4817 8.09479 33.3526 0.00811953 0.000529537 -0.0224923 
573 2 45.7351 8.52073 34.0905 0.00108453 0.000417528 -0.112289 
558 1 46.1935 7.03133 32.4931 -0.0122298 -0.0119338 -0.00237731 
570 2 45.3729 6.20494 32.3209 -0.0360752 -0.0351358 -0.00419447 
549 1 46.5507 6.94549 31.0434 0.0305364 -0.00573197 -0.0156101 
564 1 49.6271 10.469 32.8303 0.00727461 -0.000812492 -0.0237026 
552 1 49.2263 11.0705 31.4597 -0.00354339 0.0241054 4.72175e-05 
576 2 50.2508 11.0902 33.9182 -0.00525086 0.00264837 -0.00601638 
546 1 48.0893 10.4942 30.6847 -0.00793946 -0.00695424 -0.0100269 
502 2 43.9818 11.9257 19.236 -0.0559886 -0.100196 -0.0762106 
43 1 58.877 23.8476 -6.17203 -0.00812656 0.0500446 0.0152174 
50 1 59.0444 23.0929 -7.35565 0.0180786 0.0199467 0.0206296 
61 2 58.307 25.8488 -6.96471 -0.0670595 -0.0472708 -0.00357554 
49 1 58.1602 25.1074 -6.15574 0.0203362 -0.012638 -0.0216558 
58 1 59.645 18.9833 -2.49751 0.0138669 -0.0144983 -0.00487889 
55 1 55.3517 23.5417 -2.43847 0.00850677 -0.00902667 -0.00605607 
72 2 55.5998 19.1703 -2.22717 0.0196973 -0.0956302 -0.0329371 
59 1 54.8462 21.0062 -3.26509 0.00474268 -0.0296603 -0.0189602 
38 1 57.6558 22.9896 -4.30598 -0.00209442 -0.000649882 0.0283507 
37 1 58.9609 22.9717 -4.82772 -0.00394709 0.0155818 -0.0173236 
46 1 55.6784 22.1247 -2.81246 0.0224976 0.00509467 0.0228119 
52 1 55.947 24.3529 -2.9981 -0.0191716 -0.0122603 0.0059698 
40 1 57.0663 21.8323 -3.5777 -0.00294676 0.0171213 -0.0231354 
68 2 55.8266 19.2128 -4.13847 -0.0518708 0.0818041 -0.0712533 
56 1 55.6506 19.7702 -3.31168 -0.000160828 0.0178719 0.0152215 
67 2 54.2521 21.0271 -4.1269 0.0716769 0.0846593 0.00592943 
42 1 57.9601 20.7886 -3.16419 -0.00491241 0.0162291 -0.00364698 
48 1 57.1861 19.514 -3.15984 0.00874575 -0.00955823 -0.0216223 
53 1 59.5155 22.1049 -8.16041 -0.0192935 0.0105634 -0.00110839 
41 1 59.378 20.8434 -3.75741 0.0219704 -0.00328462 0.0174872 
60 1 58.1862 18.5755 -2.95292 -0.00869835 -0.0112224 -0.00873281 
51 1 56.8641 24.8151 -5.65318 -0.0260743 0.0217006 0.013869 
44 1 56.7781 24.1756 -4.3578 0.0323411 -0.00314507 0.00426799 
64 2 55.7985 25.3824 -2.70103 -0.0163698 -0.0601746 0.0270171 
63 2 55.8943 25.4947 -6.10703 -0.0280145 -0.0691606 -0.0511809 
394 2 58.5057 34.7338 -5.54149 -0.0197526 -0.0749423 -0.0196727 
65 2 59.3796 21.6259 -9.28035 -0.0282923 0.0521324 0.0244839 
39 1 59.9549 22.0022 -4.53377 -0.0123994 0.00953959 0.00714967 
501 2 39.7434 12.9278 16.4605 0.0410397 -0.0076282 0.06767 
477 1 37.6013 15.8734 16.7334 0.011002 0.0112196 -0.0245615 
560 1 49.6565 12.398 29.4262 -0.0043721 0.0250786 0.0027626 
488 1 38.488 14.7412 16.4631 0.0238039 -0.00430971 -0.00810286 
491 1 39.4932 13.8665 16.3173 -0.0022766 0.0326793 -0.00754185 
475 1 36.2238 17.9712 17.6359 0.0119293 0.00862178 0.0100587 
500 2 40.188 14.4996 15.3939 -0.0318737 0.0527736 -0.0477779 
497 2 40.287 15.7979 19.0335 -0.0500405 0.00603394 -0.088746 
471 1 37.6717 16.1582 18.1279 -0.0118738 -0.0213264 -0.0169779 
469 1 37.029 17.4736 18.6641 0.00439197 -0.0100801 0.00967514 
476 1 36.2523 13.4883 19.4298 -0.00811549 0.00817289 -0.00271962 
479 1 38.2988 15.2336 19.2572 0.00545186 0.00777928 0.00473432 
473 1 39.9239 13.5798 19.6005 -0.010454 0.031335 -0.0123072 
470 1 37.5255 13.9876 19.6356 0.021487 -0.00826093 -0.0132578 
474 1 39.6341 15.0431 19.4748 0.0120881 0.00206853 -0.00838284 
472 1 38.6926 12.9226 19.3562 -0.00294048 -0.0278837 -0.0204886 
480 1 41.2219 13.2513 19.4785 0.010439 0.023156 0.00946034 
490 1 42.3922 12.6657 19.1202 -0.000215776 0.0157884 0.0261388 
492 1 43.6836 12.4475 18.4619 0.00204921 0.00525938 -0.0247399 
343 1 40.3557 22.446 22.9972 0.00046377 -0.0070516 0.0160802 
344 1 42.198 21.6234 21.624 -0.00146123 -0.0018908 0.0178859 
360 2 46.1703 20.3742 21.8433 0.0443952 0.0676765 0.0173604 
347 1 43.5117 21.4562 21.7871 0.0039204 -0.00998425 1.59326e-05 
336 1 44.4815 21.1247 22.8839 0.00645288 0.0057383 0.0173962 
348 1 45.6098 20.2177 22.795 -0.0326455 -0.00465269 0.000529166 
356 2 41.908 21.5751 20.5643 -0.0416855 -0.0525871 -0.0362125 
359 2 44.0632 21.542 20.9827 0.0395112 -0.0389944 0.00970809 
334 1 41.3906 21.6789 22.9711 -0.00355203 -0.0475748 -0.0260698 
358 2 47.6376 20.1013 23.7626 -0.0516114 -0.00980089 0.0348723 
346 1 46.6281 20.3825 23.9664 -0.0101443 0.00870275 0.000787436 
484 1 36.1527 12.1822 18.5559 -0.0194416 0.00530371 -0.0286437 
559 1 49.1355 12.3874 27.3991 -0.0182235 0.0101296 0.0208721 
571 2 49.3148 13.4015 27.1151 0.0102416 -0.0760048 -0.0323886 
572 2 50.1163 13.3891 28.9115 -0.0104613 0.00172311 -0.0770626 
352 2 38.9881 23.6639 23.6183 0.0465869 -0.0507091 -0.0600903 
340 1 39.9325 23.0755 24.1434 0.0297506 -0.00390759 0.000216361 
339 1 40.1868 23.0476 26.6438 0.0098679 0.0149959 0.0210218 
332 1 40.7548 22.8682 25.2487 -0.0099915 -0.00125187 -0.00220855 
337 1 40.8656 22.3988 27.6598 -0.00801804 0.00322596 -0.0212073 
349 2 40.8506 22.3764 28.8301 -0.0753662 0.0483664 0.0019826 
351 2 38.9796 23.2863 26.5305 0.0286848 -0.0392189 0.0578036 
331 1 42.1824 21.769 27.5579 -0.00438757 0.00850308 -0.014726 
326 1 42.1304 22.4007 25.3857 0.0163673 0.00553675 0.0196795 
354 2 45.0485 18.4929 27.7618 0.0100857 0.0471365 -0.053905 
341 1 44.1896 21.056 29.0081 0.0115522 0.0105847 0.0189658 
338 1 42.9402 21.7791 28.8506 0.00359218 0.00935726 -0.00234061 
330 1 43.7287 21.2533 24.1195 -0.030006 0.0012761 -0.0153035 
328 1 42.3582 21.5567 24.2638 0.00943574 -0.0211635 0.032955 
329 1 44.5442 20.9804 25.23 0.0253386 -0.0192923 -0.0345419 
327 1 44.3067 21.576 26.4571 -0.000990697 0.0208542 -0.0209566 
325 1 42.9356 22.026 26.4619 -0.00815219 0.0179702 -0.0279549 
335 1 45.8014 20.2132 25.2032 -0.0029311 0.000710301 0.0008988 
333 1 44.7402 20.9682 27.7065 -0.00554264 0.0123463 -0.0164016 
342 1 45.2082 19.5347 27.3148 -0.0351332 0.00493264 -0.00961281 
345 1 46.2019 19.4866 26.3156 0.012345 -0.00270142 0.00133261 
216 2 46.7109 18.7231 26.0623 -0.0132552 0.0355855 -0.0320892 
350 2 42.5109 22.1173 29.5893 0.0548887 -0.0327916 0.00491247 
353 2 44.8925 20.2618 29.7118 -0.0537216 -0.0836702 -0.0524951 
485 1 36.1581 16.1625 16.219 0.0102898 -0.0102997 -0.000475777 
575 2 50.5567 13.1684 30.9342 -0.0264176 0.00270497 -0.0294464 
563 1 49.6833 12.2374 30.6803 0.00212625 0.00452573 -0.0110398 
568 2 47.6686 12.3554 25.9532 -0.0911918 -0.0310674 0.0275548 
489 1 43.8109 12.0811 17.1225 -0.0172259 0.0159107 0.00723504 
286 2 67.8766 10.6132 7.20524 0.00319754 -0.0240682 -0.0714869 
530 2 83.6094 -11.8454 -5.40398 -0.087396 0.000519552 0.0268043 
301 1 68.1679 11.6622 -10.3706 -0.00545201 0.0139082 -0.0191161 
313 2 67.0759 11.5319 -10.195 -0.0216507 0.0430606 -0.00494238 
263 1 66.5819 9.44833 8.70929 -0.00355447 -0.00450465 0.00273864 
314 2 68.8612 10.7312 -7.87496 -0.059855 -0.0268991 0.0072934 
253 1 64.9899 9.5358 11.9 -0.00472785 -0.0225271 0.0146957 
287 2 70.6347 11.0969 10.7124 -0.0085346 0.0149675 0.0427225 
517 1 83.9052 -9.56491 -3.76981 0.0307159 0.000591559 0.00936714 
529 2 83.2261 -10.4809 -3.41736 -0.0304674 0.064215 0.0338322 
264 1 68.7574 10.3226 10.196 -0.00408745 -0.0346426 0.00810867 
305 1 70.4956 11.7935 -7.37813 0.0372895 -0.00450755 -0.00522503 
531 2 83.5765 -8.65811 -1.81626 0.0379888 -0.0638818 0.0217929 
303 1 68.3189 11.7688 -11.8291 4.06013e-05 0.00155043 0.0157203 
464 2 72.0725 3.40147 4.42444 0.0289317 0.0500854 -0.0778893 
270 1 64.144 9.4225 8.07191 -0.00429453 -0.0334314 -0.00799682 
281 2 61.5677 9.75299 9.33193 0.0513326 -0.0121298 0.0199306 
302 1 69.3341 11.7633 -8.01328 0.031728 0.0075009 0.00490271 
269 1 62.2667 9.36655 10.0505 -0.00310135 0.0280714 -0.000785408 
261 1 63.7064 9.53698 9.52397 0.023144 0.0432115 0.0145709 
257 1 66.2174 9.71429 10.1319 -0.012729 -0.0100048 0.0148796 
285 2 63.1879 9.76948 7.39673 -0.00179971 -0.115473 -0.0248161 
255 1 64.9507 9.44004 10.62 0.00948484 -0.00382052 -0.04301 
288 2 69.6788 11.3092 8.43516 -0.0140908 0.0484829 0.02968 
273 1 65.4252 9.2059 7.86301 0.00465569 0.00332864 0.0144346 
266 1 62.5624 9.56899 11.5324 0.000100038 -0.0150795 -0.00665811 
276 1 68.8918 10.6143 8.8746 0.00593829 0.0173843 -0.0107009 
275 1 69.8927 10.6446 11.3024 0.0027878 -0.00131439 -0.00747861 
274 1 68.011 9.80238 8.13066 0.0187339 -0.0124262 0.0169997 
258 1 67.4786 9.99673 10.796 0.00334794 -0.0118119 0.0146817 
317 2 71.224 11.3408 -6.36941 0.0278025 -0.0732711 0.0269111 
278 2 61.5103 9.46366 11.9943 0.078646 0.00895501 0.0192699 
415 1 81.1051 4.07239 16.3701 -0.0076058 -0.0172127 -0.0266355 
424 2 82.3585 5.3491 15.002 0.0230235 -0.0315609 -0.00807407 
412 1 82.23 4.56947 15.5958 -0.0265282 -0.0124969 0.00315392 
316 2 69.8406 11.0754 34.0813 0.0546108 -0.0437509 -0.0056096 
427 2 80.0107 4.04943 15.9814 0.0299972 0.015384 -0.0393317 
404 1 83.4506 3.84044 15.1989 0.00697752 0.00449609 0.00340339 
265 1 63.4395 9.59081 13.8856 0.00727169 0.0207727 0.0303166 
277 2 62.4645 9.11051 14.3033 -0.0678251 -0.0651691 0.0545383 
267 1 64.7008 9.61187 14.6232 0.00350538 0.00379993 -0.0119012 
279 2 64.6992 9.47945 15.7294 -0.0413497 -0.0316567 -0.0768501 
260 1 66.0473 9.55461 14.1784 -0.0174827 -0.0235183 0.014131 
254 1 66.274 9.77782 12.7236 0.0155638 -0.0040301 0.0192052 
259 1 63.6243 9.3772 12.5225 0.00411488 -0.015071 9.4246e-05 
268 1 67.1019 10.1141 14.9982 0.0207719 0.00142155 -0.0265951 
271 1 68.1827 11.0529 14.647 -0.0109166 0.00250268 -0.0067384 
262 1 68.5487 10.3525 13.3581 -0.0345801 -0.00167026 -0.0104211 
280 2 66.8409 10.4826 16.0036 0.0676328 -0.122063 -0.0513907 
284 2 68.8103 11.2831 15.5512 0.0343133 -0.0706155 0.0134114 
423 2 83.7427 4.43733 12.9995 0.0194802 0.015161 0.0558812 
432 2 81.2492 -2.43018 20.1052 -0.000835159 0.0272987 -0.180426 
418 1 81.7627 -1.58177 19.8752 0.0198755 0.0171939 0.00969339 
431 2 80.2575 0.47558 19.2487 0.0693184 -0.0152484 0.00139901 
420 1 82.4467 -0.721041 19.5909 -0.0283697 0.0277278 -0.00586821 
428 2 79.4081 2.28716 18.1364 -0.0246889 -0.0306926 0.0470271 
416 1 80.5141 2.12969 18.0232 0.0150258 0.00441316 -0.0151274 
406 1 81.4294 2.84158 17.277 0.0084882 -0.00958349 -0.0143632 
419 1 81.2046 1.02256 18.5586 -0.0288712 -0.0147006 0.00292555 
408 1 82.616 0.431146 18.5435 0.00327074 0.00869027 0.042842 
400 1 82.8136 2.43738 17.3277 0.0263822 0.00764732 0.0019429 
402 1 83.3393 1.61444 18.4024 -0.00296725 0.0125247 0.00570548 
307 1 71.7036 11.7491 34.2094 0.00272133 -0.003067 -0.0150024 
430 2 83.3928 -1.04568 20.5012 -0.0176825 -0.0610462 -0.00956168 
398 1 83.769 2.90029 16.3075 -0.0429746 0.0264664 0.0232322 
304 1 70.4099 11.7172 34.7135 -0.028998 -0.000592389 0.00636678 
319 2 72.0918 11.2632 33.4539 -0.095958 0.0165727 -0.0219365 
272 1 69.6788 10.0902 12.4972 0.00814709 -0.0135993 -0.0057706 
315 2 67.6629 11.5973 35.3665 -0.0196859 0.00217362 0.0224984 
256 1 67.3979 10.1501 12.2217 0.0104193 0.00990674 0.0262368 
291 1 71.4475 13.3269 -9.09529 0.00716327 -0.00177151 -0.0149863 
306 1 72.4347 13.293 -6.76322 -0.00308953 -0.00642348 0.00422173 
290 1 70.4431 13.1688 -11.3968 0.00484058 -0.00532595 0.0241265 
297 1 71.5979 12.8696 -7.69943 -0.00781206 0.00843334 -0.000607108 
318 2 71.9576 12.5779 -5.66998 -0.0416424 -0.194528 0.03261 
295 1 69.1584 12.3373 -9.41717 -0.00599815 0.0125607 -0.00882858 
70 2 60.3219 18.3026 -1.88798 0.033977 0.0876242 -0.000292126 
357 2 83.2361 23.1278 11.2883 -0.0382484 -0.0346522 -0.0379299 
289 1 70.2046 13.2085 -9.89243 -0.00937016 -0.0034056 0.0184646 
309 1 73.1153 14.6313 -7.0624 0.00468212 0.0345209 0.0273858 
299 1 73.2411 15.174 -8.4181 0.00328592 0.00571593 0.0157307 
293 1 72.5665 13.625 -9.93144 0.00446678 -0.00323673 -0.0173136 
310 1 73.9371 14.0438 -9.29029 -0.000737424 0.0152864 -0.0133936 
322 2 74.9032 13.1066 -8.85392 0.00280776 -0.0452732 0.00139987 
300 1 74.4268 14.1545 -11.3214 -0.00829273 -0.0162557 -0.00352396 
294 1 72.9111 13.6742 -11.2438 -0.0200702 -0.000730349 -0.0161067 
312 1 74.9446 14.8037 -10.0553 0.0112377 -0.0118811 -0.029717 
227 1 79.6314 23.3232 11.4027 0.0383445 -0.0184007 -0.0184675 
324 2 75.2483 15.8354 -10.2587 -0.01794 -0.113519 -0.0522533 
321 2 75.7903 14.061 -10.0839 -0.101304 0.0595663 -0.0420934 
47 1 60.3532 19.7717 -3.13105 -0.00367243 -0.00365596 -0.0243907 
238 1 80.9938 22.8579 11.4434 0.00892752 -0.0420921 0.0049336 
240 1 82.1898 22.5569 11.4323 -0.0022981 -0.00284951 -0.00161811 
62 2 60.8307 22.186 -6.22465 -0.0130314 -0.0286338 0.0973983 
69 2 63.0314 20.5281 -4.66491 -0.00666824 0.0438081 -0.0215477 
57 1 61.8383 20.1791 -3.09063 0.0273898 0.00162228 0.0315951 
45 1 61.3359 21.4944 -5.24685 -0.0207648 0.00587389 -0.00533033 
54 1 61.9741 20.7736 -4.53478 -0.00907781 -0.0202991 -0.00293231 
66 2 62.8608 20.1955 -2.47059 0.0261456 -0.0477078 0.0547187 
71 2 74.6827 16.1332 -2.70503 0.0316992 -0.0873294 0.0125814 
504 2 74.2701 16.0759 -1.89031 0.0150108 0.0380666 -0.0697067 
179 2 74.9811 20.4573 10.8355 -0.0884331 0.00621428 0.046318 
248 2 81.258 23.9558 8.23265 0.00434256 -0.0699271 0.0251663 
539 2 74.6368 20.8321 11.6457 -0.0450231 0.034578 0.0165077 
231 1 77.6168 29.0877 11.8044 -0.0132191 -0.00746135 -0.0193153 
236 1 81.427 26.9218 8.14968 -0.00741506 0.0264926 0.0165536 
219 1 77.8905 25.1941 11.5571 0.0190237 0.0367802 -0.0203424 
247 2 80.6603 29.6291 8.15976 0.0164097 0.0104243 -0.0466884 
224 1 78.1239 28.6579 10.5143 0.00879565 0.0136882 -0.00305985 
228 1 80.6103 24.7003 8.81052 -0.0176634 0.0381657 -0.0189299 
221 1 78.8889 24.5029 10.7642 0.0028611 -0.0223708 0.0127585 
222 1 79.2787 25.0643 9.51956 -0.0309297 -0.0231402 0.00340069 
235 1 79.9191 29.1865 8.76892 -0.00224173 -0.0120711 -0.0258753 
226 1 80.0434 27.6139 8.6731 -0.0178747 0.0209138 -0.0015305 
232 1 79.3022 29.5621 10.0057 -0.000728756 0.0150758 -0.00865414 
251 2 81.2963 27.4156 7.30093 0.00229665 -0.0704555 -0.0789358 
218 1 78.5654 27.2996 10.5165 -0.00395574 0.00705709 0.0210944 
239 1 81.1957 25.6895 8.3183 -0.00726262 0.00892949 -0.00413361 
220 1 79.3599 26.6189 9.47757 0.00907115 0.0107367 -0.0236295 
217 1 77.6305 26.5389 11.3664 -0.0149913 0.0229577 0.000240087 
244 2 79.9615 30.2387 10.4991 -0.0054562 0.0338726 -0.0464934 
225 1 77.0748 24.3958 12.1319 -0.0126247 0.012436 0.00913441 
246 2 76.8134 22.4457 13.3864 0.0288904 0.0718043 -0.0818423 
234 1 77.4312 23.0324 12.5743 -0.0137246 0.00917118 -0.014826 
192 1 77.981 24.1666 30.4871 0.00160626 -0.000138491 0.0293085 
323 2 75.8792 14.1966 34.9608 0.0392196 -0.0297491 -0.0217856 
237 1 78.6554 22.5909 12.1101 -0.00463313 -0.000420065 0.000306923 