ITEM: TIMESTEP
750000
ITEM: NUMBER OF ATOMS
576
ITEM: BOX BOUNDS pp pp pp
-1.2000000000000000e+01 8.4000000000000000e+01
-1.2000000000000000e+01 3.6000000000000000e+01
-1.2000000000000000e+01 3.6000000000000000e+01
ITEM: ATOMS id type x y z vx vy vz 
205 2 -10.0848 -9.17392 -7.07437 0.0485649 0.0412066 -0.00199026 
193 1 -11.227 -9.15242 -7.10951 -0.0347438 -0.0243457 0.00518631 
283 2 11.0154 -3.90996 -5.77745 -0.0232366 -0.0867103 -0.0316444 
278 2 11.2308 -3.48919 -6.20395 0.0730154 -0.0259807 0.0624797 
206 2 -10.6818 -8.46616 -4.26975 0.108794 -0.0358135 0.0124839 
153 1 -10.2007 -9.85189 -1.31188 0.0036504 -0.00745991 -0.0127178 
162 1 -9.44824 -11.0649 -1.99532 0.00839459 0.00657066 0.00602057 
173 2 -8.60821 -8.911 -1.64065 -0.0511772 0.0667164 0.0346511 
161 1 -9.57138 -8.65414 -1.32654 0.0042362 -0.00380112 0.00655496 
416 1 -5.22519 9.08839 7.11153 0.00313892 -0.007952 0.00364286 
194 1 -11.5892 -8.79279 -4.55822 0.00850084 -0.00649804 -0.010944 
157 1 -11.873 -6.93277 0.556632 -0.0127706 0.00775233 -0.0252283 
147 1 -11.3487 -10.1915 -0.560837 -0.0322153 -0.0189821 -0.0083726 
422 2 -0.698428 8.50341 -1.31089 0.0761818 0.0182265 0.0751914 
413 1 -1.37223 9.47152 -1.02176 0.0161489 -0.0219818 -0.0120389 
425 2 -1.60507 10.2449 -1.88523 0.130345 -0.112593 0.0173214 
170 2 -9.6304 -6.76869 -0.238521 0.0318184 0.016322 -0.0716271 
158 1 -10.0888 -7.63759 -0.634833 0.00369158 0.00477209 -0.00299769 
151 1 -11.3728 -8.00522 -0.0721626 -0.00478669 0.0114044 0.0220165 
171 2 -10.9972 -6.15896 0.726505 0.137662 -0.00252945 -0.000948435 
572 2 10.2567 -8.09245 4.60035 0.043876 0.0240038 0.0179039 
563 1 11.2757 -8.56573 4.34738 -0.016564 -0.0206475 -0.00301907 
405 1 -10.4685 4.53695 4.43193 -0.0219644 -0.00187514 0.00239556 
414 1 -11.0813 4.12939 5.52936 0.0029391 0.0224945 0.00753776 
407 1 -10.3227 4.65963 2.90424 -0.0212583 0.00204412 0.0077817 
417 1 -10.3391 3.76564 1.84606 -0.0328069 -0.015121 -0.0105597 
429 2 -9.75123 3.88252 0.844892 0.052723 -0.072109 -0.0741285 
99 2 8.19797 2.96143 5.76641 -0.0574611 0.016632 -0.0587412 
100 2 5.66662 2.25498 2.91192 -0.00391069 -0.0162227 -0.0874404 
80 1 6.67588 2.16767 3.39974 0.0289898 -0.0259652 0.0247718 
85 1 7.84492 2.53997 4.99576 -0.0158959 -0.018053 0.0349184 
87 1 7.75002 1.83433 3.97083 -0.00751433 0.019063 -0.00590935 
399 1 -9.47733 5.7537 2.56726 -0.00189669 -0.0121101 -0.0260788 
401 1 -9.02947 7.16896 2.81178 -0.0259266 -0.0248975 -0.0196241 
402 1 -7.86381 7.78058 3.70847 0.0109847 -0.000238148 -0.0197496 
400 1 -6.69678 8.0047 4.35728 0.0115001 0.0105668 -0.00767637 
426 2 -9.37411 8.28378 2.42801 0.0362778 0.0102351 0.00725073 
410 1 -2.10205 9.27406 0.15659 0.0280416 -0.0138548 -0.0137921 
403 1 -2.66275 8.77002 1.4876 0.00976511 -0.0251367 -0.0306154 
17 1 -4.52625 6.70581 2.51692 0.00610709 -0.0204193 0.000530099 
29 2 -6.00319 4.94608 2.77806 0.00398714 0.0200803 -0.0286327 
397 1 -3.55792 7.84897 2.49371 0.000358642 0.0082062 0.00270485 
415 1 -5.2192 8.11274 4.59314 -0.00525829 -0.00813559 0.00913063 
398 1 -4.1302 8.39218 3.68695 0.00819758 -0.0048162 0.0184425 
14 1 -5.22633 5.82408 2.65318 0.00807193 0.0230147 0.00127959 
404 1 -3.15622 9.28461 4.31415 0.0439993 -0.0280455 -0.000368208 
411 1 -2.15229 9.98523 3.72539 -0.000283541 -0.0123834 -0.00295346 
427 2 -1.5331 10.5778 4.72865 -0.000534359 0.0779452 -0.0136127 
409 1 -1.99166 9.73152 2.31092 0.000863844 -0.0372143 -0.00122403 
423 2 -0.985382 9.89143 1.7046 0.0551115 -0.103707 -0.15325 
418 1 -11.3903 3.89777 6.78932 -0.0179936 -0.000422688 0.0190803 
195 1 -11.529 -9.61684 -8.47795 -0.00420414 0.00454727 -0.0122537 
420 1 -11.5926 6.12007 8.40366 -0.000495499 0.00526651 -0.010722 
430 2 -11.8337 5.95709 9.4891 0.00178075 0.0314836 0.0270062 
408 1 -11.4491 5.11518 7.56172 -0.0201061 0.00260237 0.00910237 
431 2 -5.39464 9.67749 9.13745 0.0264482 0.0274885 -0.0329113 
136 2 -11.5464 7.37632 8.08626 0.0180829 -0.0854362 0.0035321 
406 1 -4.60062 8.6983 5.84741 -0.0421131 0.0316708 0.00868019 
428 2 -6.62816 10.6592 7.85506 -0.0440892 -0.026191 0.0297557 
424 2 -3.06801 10.3361 5.88097 -0.0122042 0.0477142 0.0362192 
412 1 -3.73042 9.53192 5.70972 -0.00331983 0.026668 -0.0241233 
419 1 -6.00329 9.65229 8.20082 -0.0125528 0.0285501 0.00109944 
207 2 -10.6343 -10.0597 -9.12466 0.0604675 0.108026 0.107207 
174 2 -10.9459 -11.1796 -2.88919 0.0722981 0.106718 0.0189592 
36 2 -10.5038 -10.6229 32.2194 0.0427766 0.0315929 0.0136494 
24 1 -10.9895 -11.5133 32.7909 -0.0182583 0.00961169 -0.00669524 
323 2 -11.7349 -11.5937 17.791 -0.0952468 -0.0376929 -0.00671428 
281 2 -4.00268 24.9379 -5.34599 -0.00209159 0.00376231 -0.0386002 
269 1 -3.41926 25.7393 -5.8521 -0.0132615 0.00320991 -0.000470143 
265 1 -0.409499 26.2536 -8.23614 -0.0202304 0.00415433 0.0130422 
266 1 -2.9191 25.8885 -7.29359 0.00231455 0.0166679 -0.0262051 
277 2 -0.612509 25.5373 -8.89498 0.00460798 -0.00913611 -0.0427767 
259 1 -1.58005 26.6156 -7.43864 -0.0127292 -0.00669634 0.00407902 
279 2 1.6797 26.405 -8.96427 0.024163 -0.00636734 0.137781 
253 1 -0.964891 27.6032 -6.43088 -0.0119131 -0.0324284 -0.00418511 
267 1 0.854935 26.9155 -8.40881 0.0198968 -0.0195777 -0.00681235 
260 1 1.05393 28.1891 -7.66427 0.0191814 0.0180621 -0.0137641 
254 1 0.0257733 28.6434 -6.6858 -0.0087114 -0.00198416 -0.00914315 
268 1 2.1391 29.44 -7.88464 -0.00826933 -0.0285358 -0.0105892 
280 2 1.74969 30.3527 -8.62955 -0.0139004 -0.00716518 -0.0746543 
271 1 1.92823 30.1262 -6.78312 0.00229578 0.0303584 0.00337107 
241 2 9.69264 16.4511 -4.67703 -0.040721 -0.0106292 -0.131229 
223 1 11.8521 16.4807 -5.09964 -0.0128338 0.0129542 -0.000935027 
243 2 9.95753 17.2767 -2.38144 0.00540661 -0.00515106 -0.0427132 
231 1 10.9977 17.101 -3.00677 0.00386057 0.0029092 0.0326417 
229 1 10.6756 16.7908 -4.3743 0.0164419 0.00071861 0.0165875 
285 2 -2.69281 24.6264 -3.11584 0.0235173 0.0670706 0.0712679 
270 1 -2.46447 25.5644 -3.67164 -0.0133077 0.00757913 0.0118155 
273 1 -2.6037 26.5833 -2.61462 -0.0129675 -0.00859618 0.00850727 
274 1 -1.58933 28.7091 -1.52009 0.0109929 0.0143245 0.0276347 
263 1 -1.79137 27.8808 -2.70369 -0.0225514 0.0104808 -0.00529178 
261 1 -2.52352 26.0507 -5.02871 -0.0193462 0.0236896 0.0109135 
286 2 -2.31564 29.2136 -0.796956 -0.00456909 0.0018097 0.0287226 
255 1 -1.49742 27.22 -5.18753 0.0251189 0.00319832 0.000609571 
288 2 0.0152238 29.9891 -0.760409 0.0929413 -0.0159308 -0.0566575 
276 1 -0.350491 29.4789 -1.73965 -0.0110021 0.0162326 -0.0378356 
264 1 0.0966866 30.0158 -3.00202 0.0141737 -0.000843965 0.00758205 
258 1 -0.371132 29.3184 -4.29 -0.00462226 0.0161207 0.0118703 
257 1 -1.27316 28.1738 -4.12287 -0.0147792 0.0217167 0.0289871 
256 1 0.280081 29.3589 -5.45663 0.0321836 -0.00736877 -0.00951125 
262 1 1.63534 30.0416 -5.50066 -0.00577221 0.00551058 -0.0185592 
275 1 1.24806 31.0308 -3.31936 -0.027413 0.0128803 0.0181855 
272 1 2.231 30.8637 -4.35647 -0.0102883 -0.0321122 -0.0113594 
287 2 2.67391 31.5668 -5.21187 0.0245908 -0.0140515 -0.0524718 
360 2 3.99151 19.9748 10.9491 0.0337118 -0.0392089 0.022606 
359 2 6.16152 22.2644 9.93287 0.0579388 0.0410957 0.0471854 
336 1 6.24617 20.336 11.3317 -0.00680164 0.007194 -0.00635756 
328 1 8.86529 20.1719 11.7767 -0.00253086 -0.0167097 0.00860482 
347 1 6.73568 21.5361 10.6114 0.0269342 0.0164079 -0.0185159 
244 2 11.724 16.8808 0.0545823 -0.0179891 -0.0372641 0.126183 
343 1 10.0698 22.3824 11.9487 0.011229 0.0294442 0.00896006 
165 1 -10.2959 35.9758 -2.62897 -0.0181995 -0.00743151 0.0112616 
356 2 8.10934 23.3315 10.4121 0.0239871 0.0463725 0.00747716 
344 1 7.89875 22.3276 10.9499 0.00633734 -0.000303452 0.0194147 
334 1 8.86048 21.603 11.4448 -0.025558 -0.00809324 0.0259296 
358 2 4.99868 17.2075 10.938 -0.0260493 0.0425862 -0.0393138 
242 2 10.8203 16.5927 -7.15781 -0.0676574 0.0386853 0.0352136 
348 1 4.90323 19.596 11.4484 -0.00203538 -0.0278726 0.0171724 
177 2 11.0341 35.3743 8.91687 -0.012128 0.0117474 -0.0251385 
155 1 -11.6997 35.5213 -1.96549 0.0182192 0.0068797 0.0126124 
230 1 11.665 16.3173 -6.70988 0.0192267 -0.000758789 -0.00640786 
346 1 5.21763 18.3091 11.5232 0.00456744 -0.00196961 -0.0242753 
330 1 7.4803 19.5894 11.7621 -0.0149498 -0.0154905 -0.0203832 
178 2 -11.5392 34.4716 -3.23826 0.0561949 0.120591 -0.0740653 
216 2 5.7378 15.3674 12.286 -0.0120194 -0.0475387 -0.0308701 
338 1 11.3197 15.6917 12.8643 0.00355643 -0.0155938 0.00826013 
331 1 11.4251 17.0498 12.3408 -0.00553058 0.00293469 0.000269348 
354 2 6.91645 15.054 14.4881 -0.00319596 -0.0295132 -0.0287907 
342 1 7.4834 15.8937 13.8996 0.00300162 0.0139887 -0.0195974 
333 1 8.75663 16.1041 13.0199 -0.00393451 -0.0306055 -0.0147696 
341 1 9.93612 15.2755 12.8433 0.0268325 -0.0233227 0.020186 
345 1 6.46958 16.1682 12.7083 0.00185298 0.015297 -0.029113 
353 2 9.74359 14.254 12.971 -0.0102976 -0.0136798 -0.0105389 
332 1 11.2449 19.807 12.1839 -0.0136959 0.00274369 0.00563643 
132 1 -2.50503 31.6997 32.3544 0.0140178 0.00953232 -0.0156277 
26 2 -11.9673 30.4164 33.8445 -0.0034639 0.0438648 -0.0677221 
120 1 -2.80709 31.307 30.8551 -0.0528748 0.0214267 -0.0098166 
540 2 -6.19857 28.3493 30.6588 -0.00752008 -0.0131049 0.0164147 
327 1 8.87189 17.2915 12.2939 -0.00298758 -0.000771196 -0.0132038 
325 1 10.2015 17.8234 12.1046 0.0143195 0.00241652 -0.00379215 
335 1 6.51943 17.4496 12.0496 -0.0141814 -0.00672147 -0.0125525 
537 2 -6.41836 29.2678 30.6295 -0.0630265 -0.0481016 -0.0216882 
329 1 7.80463 18.2558 12.2407 0.0147777 0.0118043 -0.0188243 
134 2 -4.23315 23.7795 30.1526 0.060285 -0.118281 -0.0494156 
122 1 -3.65384 24.7361 30.3519 0.00264548 0.00702164 -0.0222254 
109 1 -4.0944 27.4719 29.802 0.0160675 0.0464008 0.0112444 
115 1 -4.35344 25.8046 29.79 -0.0401462 0.000503517 0.00618613 
110 1 -4.1291 28.5384 28.9317 -0.00418015 -0.0193424 0.0116937 
121 1 -4.67306 25.6576 28.295 -0.0210509 -0.0233188 -0.00732652 
123 1 -5.02077 26.8488 27.4072 -0.0212906 -0.01961 -0.00891191 
112 1 -3.70155 29.936 29.2587 0.00958906 -0.000949895 -0.000793857 
116 1 -4.8679 28.3885 27.4849 -0.00309696 -0.0144238 -0.00491403 
124 1 -4.83579 29.6208 26.5896 -0.0302412 0.00995748 -0.00829612 
139 2 -5.90685 29.89 26.4223 -0.0260907 -0.0518803 0.0185597 
30 2 -11.2107 31.9599 31.9826 0.0940324 0.120259 0.00939941 
118 1 -2.83983 30.6962 28.2428 -0.0323591 0.00161514 0.0135645 
140 2 -1.64688 32.221 27.7262 -0.0595966 -0.0351764 -0.0146271 
128 1 -1.74016 31.4857 28.4269 -0.02223 -0.00799502 -0.00735067 
127 1 -3.64697 30.3599 26.9581 -0.000851605 0.000434042 0.00793833 
496 2 -3.79745 31.3082 26.3771 -0.0760185 0.0479775 0.062062 
137 2 -2.64534 24.1508 32.2769 -0.0269287 0.0797129 -0.0523631 
125 1 -2.92563 24.995 31.7052 -0.00564894 0.0246497 0.0243737 
117 1 -3.05932 26.3677 31.9486 -0.00100823 -0.00143393 -0.00815294 
111 1 -3.52367 27.6856 31.1267 -0.00375602 0.00758866 0.0102664 
138 2 -2.90622 26.3946 34.1279 0.00230747 -0.0346401 0.0797654 
126 1 -3.1164 27.1473 33.385 0.0124114 0.0159926 0.0180812 
141 2 -3.39493 28.5964 34.929 -0.0153177 -0.0561228 -0.00574026 
129 1 -3.17563 28.3284 33.9609 -0.0114359 0.00219391 0.0132237 
119 1 -3.29416 29.4316 32.866 0.0186751 0.0149527 -0.00276589 
113 1 -3.59954 29.1082 31.4367 -0.0410554 0.00128391 -0.00384387 
114 1 -3.33312 30.1841 30.6656 0.00563476 0.0210947 -0.0182 
22 1 -11.0621 35.1749 32.0335 0.00199794 -0.0091125 -0.00294596 
326 1 10.034 19.3487 12.089 -0.0185824 -0.00152451 -0.0145 
21 1 -11.644 32.5786 32.813 0.00172306 -0.00495321 0.00179768 
34 2 -10.9166 35.0618 31.0061 0.02213 0.0179384 -0.00328801 
11 1 -11.7049 34.0056 33.0244 0.0276895 -0.0139897 0.0328657 
143 2 -1.04359 32.0963 30.5319 -0.032161 -0.064809 0.00144469 
131 1 -1.88542 31.7848 29.918 0.00263877 -0.0181425 0.00686946 
142 2 -1.9578 32.4845 33.096 -0.0718899 -0.0532534 0.0808548 
130 1 -2.58045 30.4891 33.1855 0.0121774 0.0188734 0.00234611 
340 1 11.118 21.3411 12.1729 -0.0145981 0.00807438 0.0190134 
567 2 17.4943 -6.61143 1.37676 -0.00327163 0.0576903 0.039748 
565 2 19.7757 -7.4889 0.406674 -0.01612 0.0807809 -0.00150089 
556 1 15.6904 -7.69012 2.34124 -0.0223836 0.0228683 -0.016738 
568 2 15.4264 -6.57913 2.12547 -0.0455898 0.0171329 0.0277925 
571 2 13.2067 -7.93921 2.63782 -0.0530957 -0.07624 0.049352 
559 1 14.3873 -8.32201 2.51667 0.0118699 0.0237359 0.00148818 
555 1 16.9108 -8.62531 2.15967 0.0342844 -0.0134225 -0.00810782 
553 1 19.1355 -8.28757 0.70464 -0.0106645 -0.00548317 0.0201723 
560 1 13.3591 -10.3811 3.50247 0.0153894 -0.00152111 0.0216423 
544 1 15.9318 -10.2644 3.0927 -0.0141653 0.000640836 -0.00963507 
542 1 17.1937 -9.86912 2.35697 0.0105528 1.12041e-05 0.00156388 
569 2 19.9176 -10.4759 0.501005 0.00930516 0.0654124 -0.0267748 
550 1 14.4234 -9.5637 2.99795 0.0225073 -0.0280214 -0.00900552 
547 1 19.1309 -9.71029 0.840677 -0.00693094 0.0159387 0.00824406 
541 1 18.2849 -10.5977 1.68778 0.00451865 -0.00876842 0.00965735 
546 1 16.1374 -11.4992 3.28273 0.00683037 0.00277538 0.0168161 
548 1 17.8606 -7.71702 1.19871 -0.0228319 0.00148988 0.0118773 
552 1 12.101 -9.47502 3.90665 0.0220911 0.010627 -0.00615742 
233 1 12.6159 16.193 -7.75145 -0.0158452 -0.0109316 0.0207428 
225 1 13.8592 15.9208 -6.90134 -0.0123059 0.0121681 -0.0300273 
576 2 14.7616 35.5254 4.67949 0.0222702 0.0266119 0.0470244 
234 1 14.8593 15.0884 -7.80415 -0.00196006 -0.00408728 0.00205642 
246 2 14.1278 15.0432 -8.65402 0.0225038 0.00655452 -0.0291317 
237 1 15.9762 14.8747 -6.91928 -0.0115754 -0.000625494 -0.000214873 
245 2 12.6004 16.481 -8.75014 0.0294088 0.0548643 0.0528579 
249 2 16.4571 14.3354 -8.22864 0.0201344 0.0655745 -0.0696482 
566 2 21.2821 33.4794 -0.949023 -0.139038 -0.0759098 0.00867665 
421 2 15.5361 33.2532 3.32357 0.0189286 0.0160723 -0.0477775 
224 1 12.2276 16.907 -2.12404 0.00777893 0.0209981 0.00269037 
222 1 15.7231 16.3036 -3.48038 -0.0102135 -0.00268922 -0.00554923 
236 1 17.549 16.6264 -1.9463 0.00218628 -0.0218317 -0.00743819 
228 1 17.2072 16.3162 -3.33056 0.0123731 0.0256574 -0.0257412 
220 1 14.7068 16.739 -2.57243 0.00998385 0.0186254 0.0118872 
235 1 13.9486 17.2841 -0.268434 -0.0226613 0.0114065 0.00401741 
226 1 14.8316 17.1777 -1.26182 0.0156752 0.0162297 0.0201626 
239 1 16.4854 17.1483 -1.07753 -0.0132013 0.0100049 0.0154605 
218 1 13.3527 16.6232 -3.05975 -0.00408633 -0.0277234 0.0142 
217 1 13.234 16.3754 -4.47994 -0.0106015 0.0320426 -0.0269895 
221 1 15.3536 15.9749 -4.84974 -0.0341415 0.0265676 -0.0157012 
219 1 13.9982 15.8439 -5.34523 -0.0157541 0.0124788 0.00016629 
227 1 16.3204 15.4932 -5.83047 -0.000126185 0.0165574 -0.0191498 
232 1 12.5497 17.1026 -0.755723 0.00885871 0.00210553 0.0184967 
251 2 17.0607 17.1167 -0.296713 -0.0438079 -0.0126426 0.0333434 
240 1 18.2501 16.2795 -4.47178 0.00564375 -0.00294192 0.00392768 
252 2 19.4265 16.4595 -4.30574 0.0329084 -0.0332933 -0.0216453 
238 1 17.757 16.0657 -5.67374 -0.00238682 -0.0163754 -0.00348716 
357 2 18.3391 15.9691 -6.77535 0.0393155 -0.0247461 -0.0228431 
247 2 13.8955 16.9922 0.887471 0.00168528 -0.0170322 -0.0341876 
210 2 14.5014 19.8474 3.26646 0.0559696 -0.126505 0.0382798 
284 2 14.0719 19.5991 4.05811 -0.114052 -0.0594556 0.0792201 
282 2 15.8213 30.8391 -4.39329 0.077642 0.0223235 -0.0408304 
135 2 15.3089 30.512 -5.29309 -0.0587064 -0.077975 0.0419285 
545 1 17.3437 35.5834 2.64507 -0.00730834 -0.0124135 0.00346778 
561 1 18.5413 33.3218 3.78295 0.0276773 0.0234478 -0.0241297 
551 1 17.4876 34.2515 3.32927 0.0146847 -0.0141701 -0.00377368 
562 1 16.1454 34.117 3.58271 -0.0172142 -0.0156109 -0.0121893 
573 2 18.4754 32.3332 3.74242 0.0183408 -0.0190968 -0.0494999 
564 1 15.662 35.4349 4.24965 -0.0221448 -0.000596229 0.00204643 
557 1 20.6119 33.8724 -0.203694 -0.0251106 0.00932455 -0.0266075 
549 1 19.5585 35 1.95019 0.00448104 -0.00270781 -0.0118585 
570 2 20.5021 34.5585 3.56691 -0.0641169 0.00493421 -0.0481536 
558 1 19.6097 34.1787 3.27739 0.00146846 -0.000368149 0.0162313 
33 2 33.9535 33.557 1.56928 0.0769269 -0.0198468 -0.00327675 
554 1 20.1891 34.2782 0.646272 -0.00108915 -0.00551011 0.00165385 
543 1 18.4064 35.8877 1.86452 0.0127144 -0.0124376 -0.00186884 
179 2 33.3879 15.9465 34.3267 -0.0169129 0.0549113 -0.0180407 
337 1 12.734 17.7645 12.5755 -0.0057198 -0.0017212 0.00128811 
105 2 24.7718 15.0599 33.964 -0.0345459 -0.0692096 0.134115 
466 2 25.7276 14.994 33.6832 -0.0556304 0.101672 0.0268308 
539 2 33.1286 15.1297 34.6543 -0.0211163 0.0516683 0.0444597 
349 2 13.5467 17.427 13.2301 -0.0604642 -0.0304321 -0.0444332 
250 2 14.2045 25.4324 33.6712 0.0596274 0.00436697 0.0754404 
339 1 12.6358 19.1319 12.298 0.0180134 0.0255151 0.0213025 
351 2 13.3619 20.0533 12.0777 0.0281595 -0.0156654 -0.0423917 
350 2 12.2106 15.2451 13.273 -0.0195581 -0.0646572 0.0106702 
575 2 51.3987 8.09582 10.4085 -0.0549604 0.012179 -0.00918741 
248 2 43.7778 10.3973 24.0242 0.101805 -0.018792 -0.0237378 
176 2 44.4503 10.8208 23.5718 0.014116 0.0337475 -0.0369942 
352 2 57.9683 12.0153 32.4311 0.038716 -0.00446693 0.0396966 
574 2 58.1351 11.4457 31.9058 -0.0668841 0.064014 0.0547064 
107 2 51.2061 18.8569 -1.13135 -0.056194 0.088575 0.0089108 
95 1 50.3855 19.1239 -0.295967 0.00466926 0.0309566 -0.00767334 
88 1 46.9314 21.978 -1.20124 -0.00585185 -0.000303291 -0.00177545 
103 2 47.0321 22.8729 -1.6413 0.0790642 -0.0359314 0.0539676 
91 1 47.8011 21.6947 -0.360726 -0.0037793 0.00919298 0.00247585 
104 2 49.7243 20.9518 -1.365 -0.0632092 0.0254012 0.105193 
92 1 49.4244 20.1833 -0.537874 0.00654526 -0.0017479 -0.024184 
94 1 50.7211 16.8035 2.79792 0.0160516 -0.0132652 0.00694722 
96 1 50.4801 17.3838 1.43754 -0.0181123 0.000648154 -0.0019185 
106 2 50.7207 15.6077 2.62714 -0.0587673 0.0205017 0.0194076 
83 1 49.6721 17.5311 3.65085 -0.00422026 -0.00974824 -0.0096276 
93 1 49.499 17.2781 5.05994 0.0037901 -0.0306091 0.00172862 
355 2 47.7633 22.3443 2.32797 -0.0601242 0.107909 0.00400008 
79 1 47.793 22.0482 5.41738 -0.00867465 0.011307 -0.000498441 
97 2 48.2101 23.1109 5.3012 -0.045072 0.0329352 -0.0646466 
84 1 49.7849 18.3473 0.794995 0.0270803 0.00723624 0.000494615 
74 1 47.6367 21.2826 2.68034 -0.0231437 0.024636 0.0188359 
78 1 48.6642 18.8293 1.89466 -0.00937958 -0.0118726 -0.0114952 
76 1 47.862 20.1001 1.57017 -0.0191726 -0.00572924 0.00680069 
73 1 47.8225 20.8557 4.15422 0.00727758 0.0144778 -0.0223248 
82 1 48.4242 20.548 0.357249 0.017606 -0.0119508 0.0237789 
75 1 48.2838 19.6928 4.27802 -0.0114478 0.00074223 0.0161597 
77 1 48.9948 18.8493 3.22519 0.0075446 -0.00603576 -0.0101941 
81 1 48.4772 19.0064 5.62878 -0.00260502 -0.0176904 -0.000854358 
98 2 47.7183 22.3896 7.42307 -0.00325335 0.0289273 -0.00621129 
86 1 47.5626 21.6922 6.58434 -0.00507849 -0.0056834 -0.0194984 
89 1 47.9742 20.1952 6.40609 -0.0162225 0.00272896 -0.00455193 
101 2 47.8599 19.4637 7.29379 -0.0428002 -0.133025 -0.0498343 
90 1 49.362 17.8277 6.2255 -0.0144794 -0.0175078 -0.00307276 
102 2 49.3857 17.2326 7.14172 -0.0253569 0.0381489 0.0622732 
465 2 54.7371 28.4008 27.1519 -0.015119 0.0722874 -0.0358479 
468 2 52.1457 28.8202 30.1774 0.0159057 0.0481494 0.0451394 
454 1 54.0417 27.6212 29.7737 0.0082114 -0.0251715 -0.0341254 
458 2 58.5085 26.61 28.5152 -0.00295688 -0.00262186 -0.0791725 
449 1 57.922 25.8893 29.0709 -0.00258593 -0.0105278 0.0174939 
443 1 54.6644 28.4249 28.3991 -0.0175824 0.00378084 -0.0110672 
446 1 58.5185 24.6527 29.8315 -0.00678961 0.0167479 0.027213 
453 1 55.1947 29.4786 28.7789 -0.00175604 0.0113896 -0.0189455 
448 1 54.2539 21.5124 32.2967 -0.000482062 -0.00205347 0.03123 
463 2 52.0782 21.4179 32.0234 0.0332403 0.101484 0.127372 
451 1 53.0587 22.0639 31.8545 -0.00356023 0.0105827 -0.0231568 
442 1 52.4574 23.4541 31.3675 0.00505347 0.00342134 0.0239571 
457 2 58.3872 22.1921 30.4509 -0.0597063 0.0504412 -0.0108174 
460 2 54.2528 20.5681 32.9725 -0.0530022 0.0280762 -0.0432217 
440 1 55.4616 22.2082 31.751 0.0116534 -0.00881756 -0.0189656 
459 2 57.2064 20.7128 31.5263 0.0423402 -0.0566844 -0.0536915 
447 1 56.9055 21.8451 31.801 0.0210453 -0.000856859 0.0154552 
445 1 57.9434 22.7475 31.2904 0.0263484 0.0134689 -0.0173262 
439 1 57.5565 24.101 30.9492 0.00727888 -0.0167301 0.0127133 
467 2 50.9185 25.2272 32.5109 0.0357146 -0.0128411 -0.00988097 
436 1 53.5892 24.3859 31.2048 -0.0084024 -0.0105782 0.000341193 
438 1 53.3975 25.7779 30.7693 0.0163152 -0.0276089 -0.0126654 
444 1 52.2823 26.4921 30.6927 -0.00110982 0.0133372 0.0095892 
456 1 52.7328 27.8015 30.2221 -0.00669553 0.00401453 0.00788692 
452 1 51.0614 24.1773 30.7311 0.01192 -0.00784732 -0.0343391 
455 1 51.3132 25.4278 31.3478 0.0155834 0.00667632 -0.0285618 
437 1 54.5431 26.5115 30.389 0.0406172 -0.00503184 0.0178791 
434 1 54.8942 23.6249 31.2697 0.00722 0.00325987 -0.0176042 
441 1 56.8419 26.7154 29.7759 -0.00346236 -0.0189542 0.00327288 
461 2 56.5588 27.7341 29.432 -0.0232725 -0.0232106 -0.0232352 
433 1 56.1187 24.3888 30.8438 0.0110016 -0.0302959 -0.0236129 
435 1 55.7595 25.7225 30.0542 -0.0292681 -0.0017215 0.00706247 
450 1 55.6844 30.5088 29.32 -0.00989162 0.00835608 -0.00940667 
462 2 55.7856 31.7567 29.9184 0.0446296 -0.0370378 0.0484586 
64 2 42.1888 15.9179 19.961 0.119324 0.0963216 0.0726711 
464 2 42.1116 15.1247 19.7662 0.128878 -0.071812 0.0455328 
378 1 81.2601 -9.68359 7.70232 -0.005048 -0.00522866 0.0122001 
203 1 77.5735 -11.5363 -7.82255 0.0150639 -0.0155276 0.00318792 
432 2 83.5217 3.06999 6.65766 0.0452915 -0.0200515 0.0509487 
200 1 78.3801 -10.9885 -8.98349 -0.000902168 -0.0206847 -0.0344937 
192 1 78.1844 -10.6146 -6.77128 0.0177413 0.0275629 0.00413499 
199 1 80.8601 -10.4648 -9.82551 0.0192557 0.0181072 0.0208778 
190 1 79.7859 -10.8221 -8.90289 -0.0193229 0.000473105 -0.00958916 
186 1 79.5235 -10.2417 -6.57013 0.0210864 -0.00675485 0.0129154 
196 1 82.2686 -10.4694 -9.82269 -0.00165292 -0.0184906 -0.00907102 
184 1 80.5959 -10.4918 -7.60629 -0.0103105 0.0116895 0.00330742 
188 1 82.8777 -9.67137 -8.63606 0.000923654 -0.00352985 0.0356515 
212 2 78.2776 -10.5147 -9.9333 -0.049335 0.0700737 0.0412892 
182 1 81.9656 -10.0029 -7.30041 0.0154242 -0.00571666 -0.00272944 
181 1 82.3776 -9.18608 -6.14294 0.0137387 -0.00539482 0.00199179 
187 1 83.9128 -8.98691 -5.93468 0.00716301 -0.0121967 0.0208261 
208 2 82.8061 -11.16 -10.5426 0.0233555 0.0122919 -0.0589755 
367 1 77.8941 -9.40494 10.0506 -0.00473345 -0.0171991 0.0196878 
376 1 74.5782 -11.8859 9.65767 0.00526541 -0.00429402 -0.0109427 
144 2 68.9599 8.88426 -11.1439 -0.0622701 0.122364 0.0696189 
394 2 69.0454 8.94115 -10.5929 -0.0449994 -0.0518455 -0.0922314 
202 1 76.1383 -9.14516 -5.35734 0.00836889 0.00818595 0.00553345 
204 1 77.1679 -9.60103 -6.30466 -0.0129963 0.00607362 -0.0300018 
214 2 76.1084 -8.0949 -5.05151 -0.0499365 0.00869319 0.0886842 
150 1 83.0498 -11.9474 0.00282322 0.0249144 -0.0265023 0.0333802 
183 1 81.2766 -9.14242 -5.12984 0.0057533 0.0220111 -0.00254602 
213 2 77.9233 -8.50388 -4.51354 -0.0193848 0.138802 -0.090266 
185 1 79.9038 -9.35319 -5.50239 0.0178733 -0.0297542 0.0377862 
189 1 81.9947 -8.32325 -4.07385 -0.000615602 0.00821347 0.00829972 
191 1 78.941 -8.28205 -5.23748 0.00115592 -0.0390604 -0.0303047 
201 1 79.8042 -7.35957 -4.7056 -0.0200408 0.0197509 0.00133804 
133 2 81.6781 -6.28866 -3.62594 -0.0538319 -0.0704269 -0.0230041 
198 1 80.9821 -7.26096 -4.02079 -0.00138871 0.000811515 -0.0108043 
197 1 83.3523 -8.4594 -3.7453 -0.0258881 0.00201204 -0.00235692 
149 1 84.0421 -11.6815 -0.890937 0.0302555 -0.0141413 0.0292309 
209 2 83.279 -8.17868 -2.6402 0.0851501 0.0276702 0.00689191 
369 1 80.1356 -9.38346 8.52441 0.00782714 0.0152389 0.0224798 
154 1 82.3717 -11.5412 2.2987 0.00937056 0.00136108 0.00135601 
172 2 79.2237 -7.34865 3.25803 0.0398124 0.0728276 -0.0385382 
163 1 80.0493 -6.96309 2.64301 0.0204352 0.00335851 -0.00367061 
390 2 79.9164 -9.89432 3.01894 -0.0266313 -0.00874728 0.0319876 
160 1 81.2264 -7.54986 2.21612 0.0277943 -0.00586135 0.0437145 
211 2 80.1008 -10.3251 -10.7809 -0.0190564 -0.0091025 0.0437781 
169 2 83.591 -6.41606 2.4076 0.00278293 0.00262989 0.0931461 
152 1 82.4262 -8.136 1.50193 -0.00422754 -0.000641651 -0.0129301 
159 1 83.5001 -7.16868 1.6615 0.0103036 0.0202905 0.00829642 
148 1 82.8584 -10.7614 1.05209 0.000454957 -0.00544357 0.00489132 
146 1 82.6279 -9.45884 0.725214 -0.00901164 -0.00766214 -0.0092261 
365 1 78.792 -10.9363 7.16098 -0.000119016 0.0204366 -0.0214114 
164 1 80.1565 -10.7555 3.48712 0.016467 -0.00189559 0.0178856 
167 1 81.2042 -11.3301 3.0188 0.00543793 -0.00400898 -0.00106446 
375 1 75.7387 -10.1872 10.9464 3.91925e-06 0.0209672 -0.0220316 
373 1 76.8722 -9.30599 11.0165 0.0141273 -0.0077324 -0.0236418 
361 1 77.7161 -10.2977 8.91016 0.033316 0.000626569 -0.0131239 
368 1 75.5989 -10.9922 9.813 -0.0336617 0.00616568 0.00364241 
362 1 76.5366 -10.8955 8.55569 -0.00984893 0.0136055 -0.0130561 
364 1 76.4839 -11.731 7.6198 0.0199671 0.0206403 0.0130897 
371 1 79.5702 -10.3119 6.03586 -0.0134794 -0.0134142 -0.0391498 
377 1 80.0922 -8.95351 9.8552 0.00861171 0.00106217 0.0122225 
374 1 78.9816 -8.52283 10.4837 0.00682331 -0.0109977 -0.0040201 
495 2 82.2249 -9.62508 8.23542 0.0380753 0.0210777 -0.0657734 
393 2 80.6467 -8.61159 5.53833 -0.0156028 0.011485 -0.00689607 
389 2 80.9956 -8.46837 9.96828 0.0382201 -0.0865225 0.0148869 
381 1 80.6935 -9.47529 6.40126 0.0121587 0.01328 -0.00917333 
386 2 79.5085 -8.5898 11.5864 0.0336609 -0.0276938 -0.0479316 
363 1 78.678 -9.92583 8.19167 -0.0060313 -0.0328652 0.00791288 
366 1 77.7485 -11.7717 6.72518 -0.0219804 -0.0157195 0.0315949 
382 1 79.4947 -11.1075 4.85351 -0.0100254 -0.0148036 -0.00847672 
145 1 83.6637 -9.16803 -0.436574 0.0135712 -0.0142072 -0.0193613 
388 2 74.9984 -10.733 11.8361 -0.0454181 0.0271088 -0.0184054 
6 1 83.1905 -11.9373 34.0868 0.00305505 0.00267264 -0.0455175 
387 2 76.9714 -8.69797 11.8306 -0.0240243 -0.021712 -0.0931437 
298 1 80.0531 -11.902 18.3526 -0.0352127 0.0119246 0.00372587 
4 1 81.9325 -11.8978 34.723 -0.0178561 0.00523413 0.00723265 
306 1 78.0788 -6.92114 20.2345 0.0103686 0.00501547 0.0131389 
299 1 76.8536 -6.6869 19.8634 -0.00710835 0.00995063 -0.0304823 
297 1 77.1129 -9.036 20.673 0.0183318 0.0109974 -0.00572692 
309 1 76.3131 -8.14397 20.2374 0.000616175 0.00631871 -0.0030198 
291 1 78.2673 -9.57192 20.665 -0.00589064 3.84626e-05 0.00541516 
289 1 77.9512 -11.1289 21.0117 -1.6473e-05 -0.0147473 0.00925566 
295 1 76.5343 -11.3597 21.4056 -0.0138457 0.00097212 0.0226228 
35 2 82.9656 -10.121 31.1416 0.0281644 -0.000724432 0.0552509 
28 2 78.0946 -10.2605 34.0069 -0.0181167 0.141231 0.074283 
310 1 79.3066 -7.36203 20.6638 0.0227341 0.00916563 -0.0118878 
322 2 80.2795 -6.80598 20.3064 0.00986978 0.0242449 0.0509885 
293 1 79.341 -8.7721 20.3811 0.0120578 0.00498806 -0.0175324 
300 1 81.4642 -9.45073 18.8934 -0.00823223 -0.0248975 0.00800201 
294 1 80.2113 -9.58528 19.4744 -0.00521182 -0.0254833 0.0185524 
292 1 79.5403 -10.8709 19.2956 -0.0187918 -0.0269471 0.0114354 
290 1 78.0692 -11.3288 19.509 0.0201372 -0.00798798 0.011945 
311 1 82.0948 -10.7054 18.4595 -0.000656476 -0.0223282 -0.0307816 
308 1 81.339 -11.7635 17.8919 -0.0135789 0.012491 -0.0460131 
312 1 83.5721 -11.0467 18.2525 -0.0038119 0.00397429 0.0430579 
321 2 81.8363 -8.32131 18.9683 -0.0324173 -0.0313746 -0.0162061 
318 2 76.3465 -5.67857 19.3727 0.0202553 -0.0322499 -0.00364787 
530 2 81.0887 4.8267 30.4998 0.0206553 -0.0145317 0.0257963 
534 2 82.9559 8.75371 28.7377 -0.0183276 0.0380015 0.0394284 
513 1 81.1401 6.81963 29.9661 0.00447913 0.0186999 -0.00469373 
521 1 80.5177 5.67989 30.7649 0.0025394 -0.0177808 0.017466 
533 2 81.4268 6.24655 29.0055 0.00133003 0.0283677 0.0136113 
522 1 81.5427 8.3005 30.2354 0.0272652 -0.0337437 0.0112718 
525 1 82.1391 9.12841 29.3862 -0.00626876 0.0123822 0.00697845 
515 1 81.6606 10.3331 30.2731 0.0311904 -0.012655 0.0181034 
31 2 78.444 -11.396 32.7501 0.019482 -0.0388898 0.101542 
510 1 79.8218 10.933 31.9923 0.0154919 -0.00148539 0.0039219 
16 1 78.6514 -11.1844 33.9033 0.00195327 0.000371014 0.0175053 
32 2 80.7613 -9.56433 32.2543 -0.0569936 -0.0165765 -0.0292039 
23 1 82.6747 -10.4587 32.1245 0.0159064 0.00454052 -0.00477371 
20 1 81.539 -10.3018 32.6309 0.0123598 -0.00223949 -0.014071 
19 1 79.8609 -10.9089 34.1245 0.00183818 -0.001291 0.00949418 
10 1 81.2589 -11.0088 33.8815 -0.0133242 0.011214 0.034083 
506 1 78.8401 9.27497 32.9971 -0.000485631 -0.000301754 0.00587967 
512 1 77.6084 8.92582 33.4616 0.0164537 0.0203766 0.0093164 
535 2 77.1858 11.368 35.9098 -0.0131578 -0.0127189 0.0175794 
532 2 75.8593 9.93292 34.0469 0.0311412 0.039598 0.0767302 
523 1 77.6242 10.9116 35.0439 -0.0207938 0.0128174 0.00111662 
520 1 77.0313 10.0825 34.161 -0.00234361 -0.0196844 0.000392792 
529 2 76.8704 5.74316 32.084 -0.0547038 -0.0144155 -0.0680545 
531 2 75.7417 7.73552 32.9503 0.0396586 0.0294798 0.0103304 
517 1 77.5197 6.66213 32.3736 0.0128398 -0.00527735 0.0198057 
514 1 78.849 11.3412 34.3061 0.0100965 0.0178597 0.0455183 
519 1 76.9927 7.67522 33.2246 -0.0165829 -0.0101115 0.0169111 
505 1 79.3281 8.59002 31.817 -0.0185904 0.00790565 -0.00100856 
511 1 78.5822 7.12516 31.5792 -0.0263467 0.0250156 0.00958783 
509 1 80.3226 10.1698 30.9108 0.0121537 -0.000185038 -0.0154162 
507 1 80.2942 8.63223 30.9198 0.0277596 0.00515979 0.00951199 
518 1 79.1036 6.16741 30.5824 -0.00250115 -0.0234981 0.0152509 
508 1 79.2619 10.4925 33.0804 0.022081 0.00317852 0.00551954 
301 1 75.6567 -11.8454 20.4224 0.00172399 -0.0066079 -0.0227755 
12 1 83.5739 -11.4506 32.8052 -0.00695964 0.0272893 -0.0264729 
324 2 83.8977 -10.3561 19.0507 0.00806342 0.0556707 -0.0164639 
526 1 81.4173 11.6952 29.7274 -0.0118984 -0.0142661 -0.0116001 
70 2 61.2164 26.8675 -11.8831 0.0619579 -0.0275387 -0.0568181 
72 2 62.877 29.0233 -10.2008 -0.0704339 -0.0787575 0.0820402 
56 1 62.3541 29.6313 -11.0059 -0.0120643 0.00546651 0.027529 
59 1 62.5338 31.0745 -10.9482 0.00242538 0.0290022 -0.0164082 
67 2 62.9231 33.4517 -10.6076 -0.0940774 -0.000985164 0.0450119 
68 2 63.0187 31.8497 -10.2107 -0.0263722 0.0748104 0.0180953 
55 1 62.4656 33.4136 -11.5446 0.0312937 -0.00857323 -0.00751877 
46 1 62.1829 31.9829 -11.771 0.0243175 0.0123352 -0.0109335 