ITEM: TIMESTEP
760000
ITEM: NUMBER OF ATOMS
576
ITEM: BOX BOUNDS pp pp pp
-1.2000000000000000e+01 8.4000000000000000e+01
-1.2000000000000000e+01 3.6000000000000000e+01
-1.2000000000000000e+01 3.6000000000000000e+01
ITEM: ATOMS id type x y z vx vy vz 
212 2 -9.28712 -10.4205 -7.06356 0.137198 -0.0741042 0.0174457 
200 1 -9.94676 -9.44131 -6.53174 -0.0291747 0.0251003 0.0287257 
192 1 -11.0625 -7.99344 -5.49407 0.0273611 0.00856928 -0.0015032 
203 1 -10.067 -8.09271 -6.63372 0.0350794 -0.00556252 -0.0170992 
182 1 -11.8087 -11.1075 -3.4442 0.015333 0.00253049 -0.0112703 
215 2 -9.69214 -7.37607 -7.40024 0.030645 0.0309018 -0.0236657 
214 2 -11.373 -4.63025 -6.25349 -0.0669562 0.0502353 0.000195828 
515 1 -11.1358 6.61092 -9.99542 -0.0060218 -0.0166662 0.00294548 
510 1 -11.3442 9.22272 -10.2009 -0.00849682 -0.0118597 0.0211181 
526 1 -10.9384 6.45248 -11.4351 0.00183668 -0.00342994 0.0118345 
524 1 -10.2963 11.4979 -10.8252 0.0238419 -0.0142045 -0.00141838 
525 1 -11.5081 5.69422 -8.95747 0.0162676 -0.0162996 0.0170357 
204 1 -11.1139 -6.62278 -5.09643 0.0318007 0.0268709 -0.00974832 
516 1 -10.5549 9.13224 -11.4269 0.0305311 -0.0125043 0.0472334 
190 1 -10.3016 -10.6124 -5.35824 -0.012778 0.0133494 -0.00391672 
199 1 -9.54727 -11.5991 -4.58497 0.00958441 -0.00995237 0.0132375 
184 1 -11.3815 -10.3469 -4.4983 -0.0172743 -0.0304097 0.00887877 
428 2 -10.2781 -0.904185 -1.16574 -0.124294 -0.0111915 -0.0234016 
419 1 -9.45074 -0.231381 -1.12327 0.0187932 -0.00914294 -0.00625381 
431 2 -8.71263 -0.291857 -1.96396 0.00564529 0.038228 -0.000853647 
402 1 -6.77938 2.25485 -0.979452 0.0199293 0.00695024 0.0182392 
426 2 -5.75562 2.38279 -3.22764 0.0354432 -0.104264 0.0482365 
399 1 -6.62184 4.2579 -2.48127 -0.00280009 -0.000892586 -0.0266332 
401 1 -6.39685 2.93594 -2.30131 -0.0124603 -0.0132433 -0.000993867 
414 1 -6.69283 8.01808 -3.12217 0.00223757 0.00478638 -0.0119076 
405 1 -6.5223 6.6068 -3.18767 -0.0202742 -0.0267672 0.00765672 
407 1 -6.25865 5.31104 -3.56578 0.00522941 -0.0269271 -0.02551 
429 2 -6.18108 5.70635 -5.65214 -0.0095668 -0.144354 0.00206981 
417 1 -6.58583 5.0276 -4.97132 0.0030698 -0.0243074 -0.00799301 
418 1 -6.27607 9.33533 -2.31967 0.00777909 -0.050854 -0.0294961 
154 1 -9.49611 -8.78957 2.68235 -0.00698696 0.0141866 0.0213474 
147 1 -5.55823 -10.0414 3.10381 -0.0162928 0.0194583 -0.00668911 
149 1 -6.77315 -10.9157 3.49492 -0.000906668 -0.0203273 -0.0146557 
145 1 -5.69234 -8.60169 3.09023 0.0133351 0.00445047 0.0133482 
150 1 -8.06857 -10.4617 2.91468 0.0175276 -0.00272049 -0.0122237 
152 1 -7.28056 -6.69409 3.25849 -0.00039534 -0.0202584 0.0010998 
146 1 -7.08661 -8.02489 2.96135 -0.00554998 0.00332771 0.00613683 
148 1 -8.24608 -8.98733 2.93646 0.0297873 -0.0111553 0.00255022 
156 1 -9.12873 -11.4632 2.49347 -0.00720434 0.010851 0.0144552 
180 2 -10.0776 -10.6225 2.04043 0.0144574 0.0580421 -0.0154659 
175 2 -11.2851 -9.22797 1.42291 0.0731825 0.0237216 0.0310607 
167 1 -10.9583 -8.68863 2.40555 0.0113314 -0.0132111 -0.0141947 
160 1 -8.4358 -6.26083 3.8762 0.0181032 0.0113138 0.00936857 
422 2 -6.73978 6.47151 5.57086 0.0182664 0.0140987 -0.0509844 
173 2 -2.14428 -9.80121 3.68077 0.0012993 -0.0622925 0.0428047 
508 1 -12.0163 10.526 -9.68575 -0.026099 -0.00421108 0.0252552 
170 2 -2.27817 -8.00432 2.833 -0.0470428 0.0694555 0.0321521 
151 1 -4.62595 -7.59141 2.82333 0.00661811 -0.0180135 -0.0221164 
153 1 -4.20101 -10.5488 3.34259 -0.023632 -0.00327451 0.00843598 
161 1 -3.06623 -9.53228 3.20823 0.024411 0.0113592 0.0269976 
158 1 -3.3617 -8.21302 2.94354 0.00518452 -0.000975655 0.0285134 
157 1 -4.76547 -6.05438 2.82833 -0.0163812 -0.00790527 -0.0206219 
416 1 -8.97756 0.00545152 0.138741 -0.014352 0.00852836 -0.018422 
172 2 -10.0797 -5.52431 4.8427 0.0142726 0.0602098 -0.031737 
163 1 -9.46254 -6.45576 4.95455 0.00979838 -0.0136565 -0.0194 
159 1 -6.02464 -5.8101 2.90531 0.0109725 -0.00280672 0.0339949 
424 2 -9.23835 -1.03334 2.97532 -0.0600366 0.0389603 0.125565 
412 1 -8.98708 -0.0626303 2.76442 -0.0241661 0.00227686 0.00430123 
427 2 -9.18296 0.744247 5.51738 -0.0298655 -0.120454 -0.0178432 
169 2 -6.14177 -4.79458 2.94465 0.0189309 -0.0956142 -0.0881931 
171 2 -4.37878 -4.9648 2.75316 0.00631732 0.0137614 0.00564434 
400 1 -7.29511 1.97186 0.138268 -0.0128234 0.0189754 -0.00134614 
406 1 -8.44668 0.30569 1.36798 -0.023565 0.0151255 0.0199731 
415 1 -7.96924 1.84561 1.39072 -0.000308086 0.018296 -0.0225887 
14 1 -4.56919 4.01074 2.76492 -0.0158545 -0.0401126 0.0145281 
410 1 -6.97353 4.3983 5.01998 0.00556507 -0.00830835 -0.00140587 
17 1 -5.65446 3.26518 2.96357 0.00224461 -0.00157563 0.0317521 
397 1 -6.9058 2.75597 3.32807 0.0132558 -0.00258762 0.00254809 
398 1 -8.40816 2.38734 2.61185 0.0142912 0.0108154 0.00929228 
403 1 -7.49954 3.38859 4.51713 -0.011456 -0.00869532 -0.00818234 
413 1 -6.24687 5.53433 5.67196 -0.00184503 -0.0117679 -0.00495308 
404 1 -9.06535 1.33114 3.26171 -0.00941434 -0.0103184 0.00961575 
411 1 -9.04173 1.62866 4.82317 -0.00576381 0.0100196 0.0057592 
409 1 -8.44005 2.64297 5.53099 -0.0136393 0.00865461 -0.00669438 
430 2 -6.26322 10.7058 0.998468 0.0779925 0.0928689 0.0245464 
432 2 -6.65125 9.83292 -3.43362 -0.0424881 0.0130568 0.00580512 
136 2 -8.02539 10.2023 0.0848678 -0.0263698 -0.0161065 -0.0810656 
425 2 -5.48597 5.71838 6.5571 -0.0725485 0.0197937 -0.00213724 
29 2 -4.57617 5.07956 2.57309 0.0727724 -0.0777039 -0.0373229 
420 1 -6.86746 10.3505 0.130262 0.0126368 0.0200772 -0.0153909 
408 1 -6.26116 9.77656 -1.05012 0.0396242 0.00837336 -0.0074309 
423 2 -8.34006 2.4529 6.70482 0.0911238 0.0965094 -0.0259697 
528 1 -10.5861 7.58645 -11.7597 -0.0193605 0.0337558 0.00721475 
514 1 -11.1902 11.9224 -10.0111 0.0152393 -0.00386443 -0.0048816 
164 1 -11.7368 -8.27049 3.49913 -0.000292233 0.0361253 -0.0293534 
534 2 -11.8165 4.62362 -9.08856 -0.00763426 0.0582555 -0.0369368 
509 1 -11.6782 7.91886 -9.80074 -0.0112316 0.0165596 -0.00651186 
202 1 -11.1548 -5.31205 -5.36204 0.00686219 -0.007372 -0.0105129 
390 2 -11.3722 -7.77949 4.33666 -0.0326756 0.0369438 0.0214301 
211 2 -8.80377 -11.8529 -5.4139 -0.0175875 -0.0209481 0.0117387 
527 1 -9.8142 10.4047 -11.4059 -0.0114731 -0.0197985 0.00021284 
186 1 -11.8398 -8.88694 -4.81616 -0.00575282 0.00539897 0.00468345 
538 2 -10.6554 5.41109 -11.7129 0.0425707 0.00524586 -0.0533992 
71 2 -6.15405 -11.5766 -0.465044 0.0204839 0.075651 0.0659756 
504 2 -6.73646 -11.5698 0.096604 0.0242528 0.049925 -0.0559758 
162 1 -4.30857 -11.828 3.99127 -0.00999242 0.0272047 0.0124603 
100 2 7.11074 -5.45096 14.6708 0.0535563 0.0681418 0.062228 
99 2 9.34087 -4.90609 18.2233 -0.0219824 0.071464 0.0114481 
85 1 8.10438 -5.32217 18.2519 -0.0263359 -4.2337e-05 0.00947495 
87 1 7.26065 -5.59587 17.1309 0.0188548 -0.0337338 -0.00615753 
80 1 7.1525 -5.72872 15.85 0.00530515 -0.00183461 0.0306001 
536 2 -9.00679 10.743 35.8263 -0.0259569 -0.0830749 -0.0216567 
252 2 9.42949 18.862 -7.57451 -0.0427674 -0.0133978 0.0514628 
155 1 -6.60502 35.7421 3.59369 0.0249424 -0.0250464 -0.0114348 
348 1 6.61255 20.7383 10.9153 -0.00886443 0.00308497 -0.0308869 
357 2 7.8253 19.8034 -5.9642 -0.0202616 -0.0509271 0.0697794 
240 1 9.77747 19.4107 -6.47014 0.00328579 0.0153858 0.00385991 
238 1 8.79024 20.3334 -5.91734 -0.0165721 0.0334949 0.0172993 
287 2 -0.392278 27.846 -7.26756 -0.0226804 0.00690397 0.00547903 
272 1 -0.919454 28.684 -6.94639 -0.03558 0.00111317 -0.00932588 
274 1 -3.07501 32.3916 -8.96368 0.0362095 -0.00444311 -0.00910282 
286 2 -3.70524 31.7666 -9.60754 -0.00865713 0.0338766 -0.0252922 
258 1 -3.04827 30.704 -6.60509 0.0354515 -0.0170682 -0.0208464 
257 1 -3.57681 31.8841 -6.46841 0.00669932 -0.0462586 -0.0225238 
263 1 -3.4565 32.9796 -7.58847 -0.0296826 -0.00302233 -0.000759608 
276 1 -2.13075 31.3087 -9.02472 -0.0112403 0.000108254 0.00401576 
264 1 -2.14976 30.5194 -7.77682 0.000609271 -0.00677731 0.0155523 
288 2 -2.02782 31.0836 -10.1886 0.0507633 0.042771 -0.016909 
273 1 -4.37755 33.7397 -7.22007 -0.00276366 -0.00995453 0.00740628 
275 1 -1.245 29.5252 -7.81241 -0.0180826 -0.0120641 0.0125938 
176 2 5.5126 17.8571 -6.09042 0.0478014 0.0478798 -0.0541686 
248 2 4.61203 18.0411 -5.98749 0.0644638 -0.0330868 -0.00420862 
33 2 8.13384 14.6974 -2.58129 -0.0486804 -0.00464271 -0.0252027 
249 2 7.0579 21.3751 -4.85807 0.0949387 -0.0362867 0.0123947 
237 1 7.84423 21.2515 -3.97925 -0.00766709 0.000781912 -0.00462678 
246 2 6.92555 22.818 -3.7376 0.0564601 0.0940969 -0.0129348 
227 1 9.07956 20.6413 -4.49924 -0.00486179 0.00623696 0.00700635 
234 1 7.98341 22.7166 -3.84757 0.000521504 0.00734177 0.0285427 
225 1 9.23454 22.977 -3.30562 -0.0214062 0.000367914 -0.020045 
233 1 9.18467 24.0379 -2.28537 0.00934013 0.0165432 0.0283204 
230 1 10.3212 23.9903 -1.31873 0.00886139 0.0115205 0.0143632 
223 1 11.5021 23.2554 -1.43148 -0.0129031 -0.00967606 0.00112225 
219 1 10.3767 22.0192 -3.20632 -0.0117045 0.0102045 -0.0318858 
221 1 10.1958 20.7411 -3.88886 -0.00864611 -0.00150596 -0.00255731 
217 1 11.5595 22.2735 -2.49084 0.00184354 0.00211869 -0.014992 
222 1 11.2336 19.9818 -4.48081 0.0054766 -0.0151335 0.00756722 
280 2 -2.92426 27.024 -3.13803 0.0186449 0.0399263 0.0143676 
262 1 -1.94742 28.7658 -5.80597 -0.0135497 0.0289058 -0.0215443 
268 1 -2.27132 27.8994 -3.5973 0.0016324 0.0133217 0.0226819 
271 1 -1.67971 27.9281 -4.85726 0.00162513 0.000597347 -0.0276541 
265 1 -5.39884 29.96 -2.59201 -0.00481763 0.00434778 0.00224631 
277 2 -6.19839 29.9399 -1.85809 -0.0280166 -0.0294323 0.0272586 
267 1 -4.52655 28.7766 -2.60434 -0.00860873 0.0305475 0.00697217 
279 2 -4.53187 28.2695 -1.59045 -0.0417436 0.00368329 -0.0562325 
254 1 -3.5511 30.0636 -4.28204 -0.0146743 0.0327138 0.00243683 
260 1 -3.38949 28.843 -3.50573 0.00433312 0.00531176 0.00017705 
256 1 -2.98442 29.7835 -5.59144 -0.0210429 -0.0164119 -0.000188107 
245 2 8.55142 25.0405 -2.55853 0.101653 -0.0164265 0.0504877 
242 2 10.7855 24.5265 -0.431174 -0.0692913 -0.0255681 0.0716711 
208 2 -9.1143 34.1509 -3.57884 -0.0213571 0.0669591 -0.0367141 
207 2 -9.91198 35.0436 -1.48864 0.0281079 -0.0918424 0.0299475 
196 1 -9.8039 35.3457 -3.80526 0.0153202 -0.00422014 -0.00459279 
281 2 -7.28179 33.5816 -4.85116 0.0363469 0.0485728 -0.0158206 
269 1 -6.35289 33.0228 -4.55451 -0.0198205 -0.0183472 0.00360227 
228 1 11.1326 19.7279 -5.94812 -0.0150909 -0.0195559 -0.0217012 
195 1 -10.9692 35.4039 -1.80337 -0.0215473 -0.00736581 0.00383013 
266 1 -6.75551 32.0371 -3.45992 -0.00562926 0.0230066 0.0105556 
523 1 -11.6359 13.0983 -9.17367 0.00355729 0.00769386 -0.00978797 
259 1 -5.54375 31.1918 -3.3603 0.000846302 0.00946766 0.018911 
253 1 -4.49699 31.0741 -4.32632 -0.00652136 0.0098429 0.0220809 
285 2 -6.4172 34.7526 -6.41408 0.00313865 0.00239559 0.042532 
255 1 -4.38219 32.2867 -5.41115 0.0074461 0.0246647 -0.00451653 
270 1 -5.23552 34.3347 -6.37939 0.000554234 0.00492117 -0.00899595 
261 1 -5.21697 33.2741 -5.38995 0.0143123 0.00241276 -0.00943261 
575 2 -2.55551 20.0949 1.37445 -0.0528091 0.011779 -0.00869583 
346 1 7.54372 20.7688 12.006 -0.0325912 -0.0124465 0.0195333 
168 1 -9.21316 35.2363 2.94184 0.00530763 0.00890963 0.00979145 
166 1 -8.04589 35.0732 3.70183 0.0191718 -0.00785163 -0.00864545 
178 2 -7.96975 34.2867 4.29022 0.0107017 0.065009 -0.0297313 
188 1 -11.1298 35.4716 -3.30272 0.0189952 -0.00165673 0.0300259 
165 1 -5.51689 35.3536 4.35501 -0.00220777 0.00316443 0.0189211 
174 2 -5.00796 34.8012 5.27021 -0.0208205 -0.0325866 0.00968053 
343 1 8.44438 17.3466 6.51722 -0.0121715 0.0251166 0.00487458 
340 1 9.62679 16.6202 6.27867 0.00170651 0.0198071 0.0296853 
332 1 10.1772 16.5293 7.74612 0.000897202 0.031754 0.00854298 
325 1 9.88373 16.6809 10.3462 -0.0224306 -0.007551 0.00645509 
326 1 9.55625 17.1937 8.86737 0.0133447 -0.00653384 0.00162298 
331 1 10.789 15.5747 10.7337 0.0130721 -0.00128983 0.0133115 
334 1 7.82463 18.3056 7.60544 0.00196775 0.0077737 0.000329062 
351 2 10.0529 14.1849 7.57351 0.0402455 0.0218306 0.00245212 
337 1 10.763 14.7478 9.57034 0.00393123 -0.0129854 -0.00892855 
339 1 10.491 15.0183 8.24892 0.0248118 0.00542384 -0.00896603 
349 2 11.2202 13.6827 9.55196 -0.0118929 -0.0167462 -0.0129742 
327 1 9.37825 17.5031 11.3228 -0.000459861 -0.00498541 -0.00829442 
356 2 6.39843 19.0922 6.67382 0.0818192 -0.0476392 0.0545877 
359 2 4.96305 20.4062 8.72541 0.00839093 0.0402759 0.00183048 
347 1 5.79927 19.8413 8.68761 0.00721308 -0.00654826 -0.00693033 
336 1 6.86143 19.9631 9.70136 0.00332508 0.00425732 -0.00294187 
360 2 5.85559 21.5465 10.7537 0.0482899 -0.0248235 0.0398894 
535 2 -11.3917 14.225 -8.98702 -0.00735293 0.0692389 0.0671426 
328 1 8.54245 18.167 8.90267 0.00365504 0.00789979 0.00105018 
329 1 8.69965 18.8495 11.0899 0.00393011 -0.016102 -0.0266135 
344 1 6.64686 19.1774 7.66397 0.0269166 0.00958258 -0.0289575 
330 1 8.23016 19.2316 9.81785 -0.0143492 -0.00728823 -0.00290916 
350 2 11.3938 14.0155 11.6994 -0.0271592 0.0561921 0.0323405 
333 1 9.67668 16.948 12.665 -0.0111088 0.000144841 0.00613053 
353 2 10.4746 15.043 13.851 0.0149803 0.0851178 -0.00622439 
137 2 -7.91157 33.35 31.4816 0.0129389 -0.0883899 0.0288027 
335 1 8.38651 19.6489 12.3252 0.00379769 -0.0254858 0.0334273 
341 1 10.4663 15.7019 13.0183 0.0118601 -0.00382411 -0.00897 
342 1 9.28163 17.854 13.7044 -0.0114454 -0.0216512 -0.00939549 
216 2 9.58523 20.2704 13.9918 -0.0333586 0.0430026 -0.0101815 
354 2 10.184 17.7995 14.2594 -0.0929697 0.0797598 0.0360908 
358 2 7.25768 21.5877 12.9559 -0.00997775 -0.0458889 -0.0147169 
345 1 9.06718 19.3219 13.6189 -0.00323002 -0.0024816 -0.0240029 
119 1 -11.3275 31.955 28.4159 -0.0167725 -0.0115266 0.0255014 
129 1 -10.1747 32.921 28.2338 -0.0207527 0.0177836 -0.0157965 
109 1 -11.2375 31.8455 32.0295 -0.0216419 -0.00177658 0.00114231 
122 1 -9.36589 33.5957 32.9431 0.00491339 0.0205031 0.0143542 
141 2 -9.66052 33.0088 27.0767 -0.0149454 0.0624814 -0.0635596 
126 1 -9.24511 33.4842 29.1937 0.00442421 0.0129423 0.00364009 
113 1 -11.592 31.4923 29.7915 -0.0121322 -0.000159343 -0.00414626 
138 2 -8.52634 34.2913 28.8355 0.00153239 0.0109045 -0.0476918 
121 1 -11.5416 32.6642 34.1967 0.0110808 -0.00674447 -0.01959 
115 1 -10.5351 32.8474 33.1637 -0.00130955 0.00279807 0.00338363 
134 2 -8.98781 34.4815 33.5252 -0.0167569 -0.0309979 -0.128455 
111 1 -10.7606 32.1903 30.7198 0.000723075 -0.0071498 -0.00229316 
125 1 -8.80291 32.6602 31.8039 -0.046704 0.0146989 0.0109685 
117 1 -9.24302 32.6086 30.4685 -0.0322084 -0.00121373 -0.0179404 
284 2 -2.14832 26.7496 35.3278 0.0470528 0.0420727 -0.0183509 
338 1 11.1822 15.045 11.9758 -0.00401819 -0.0247818 -0.0144817 
210 2 -2.29259 27.408 35.7296 -0.0202778 0.128186 -0.0434784 
549 1 16.5406 -10.4647 -1.04866 -0.0049115 0.0142957 0.000623172 
554 1 16.8641 -9.15842 -1.84927 0.0190877 0.012725 0.00925269 
557 1 17.0264 -8.09088 -1.65459 -0.0301377 0.0337788 -0.00354789 
558 1 16.2478 -11.7658 -1.63256 0.00216543 0.00657418 0.0324919 
570 2 15.2679 -11.9771 -1.99203 -0.0665013 -0.0838871 -0.0071953 
566 2 17.0418 -6.98579 -1.62691 -0.0100201 -0.0335694 -0.116445 
135 2 26.5037 5.69812 -2.84042 0.0448996 0.00962045 -0.0918285 
282 2 25.7876 5.23883 -3.44369 -0.000578054 -0.0369697 0.0962881 
569 2 15.7172 -8.47571 0.972307 -6.15004e-05 -0.086131 -0.0378238 
464 2 17.7489 5.03341 -4.72864 -0.0527254 0.0425141 -0.0243033 
556 1 16.7728 -11.5002 5.14043 -0.00150902 -0.00249519 0.0322094 
555 1 16.8002 -10.7258 3.90397 0.0178074 0.0172507 -0.0113116 
568 2 16.358 -11.0187 5.93522 -0.016376 -0.0511751 0.0412699 
542 1 17.2227 -11.1351 2.64714 -0.0244311 -0.0188422 -0.00074475 
541 1 16.7754 -10.3161 1.40891 -0.00215333 -0.0187462 0.0144035 
543 1 16.9934 -10.8476 0.298253 -0.00918317 -0.0183618 0.00511476 
548 1 16.4553 -9.24503 4.23126 0.0148698 -0.000224545 -0.00220339 
547 1 16.0677 -9.17599 1.68296 0.0136638 -0.0285099 -0.0140365 
567 2 16.3894 -8.71791 5.17402 -0.0727568 -0.00729069 -0.0364253 
565 2 15.3237 -7.45391 3.1501 -0.060512 -0.0789957 0.0114764 
553 1 16 -8.51035 3.06227 0.0076478 0.00035814 0.0140838 
64 2 18.3246 5.48341 -4.09856 -0.0602879 0.0340116 -0.197284 
394 2 20.3377 -0.410987 21.9385 -0.0358633 -0.00930833 -0.0279227 
144 2 20.3138 -1.0943 20.9191 -0.0560136 0.087121 -0.00675933 
546 1 17.6011 35.0211 1.26414 -0.0104576 -0.00128583 -0.0193642 
564 1 18.5747 33.7426 0.939057 0.00143386 -0.00867688 -0.0397836 
571 2 17.212 34.649 6.11354 0.151429 -0.0529839 0.0343826 
236 1 12.4957 19.3146 -6.04509 -0.0114478 0.00647845 0.0114945 
251 2 14.496 18.7432 -6.24405 -0.0119933 0.0947472 0.000736402 
239 1 13.673 19.2927 -5.56905 -0.0137503 0.00905753 0.00168155 
247 2 15.7633 19.1928 -3.74031 0.106259 0.0589561 0.0801292 
220 1 12.3777 20.5637 -3.69678 0.00551363 0.00965999 -0.00173535 
226 1 13.4804 19.734 -4.12709 0.00180664 -0.0225034 -0.00883347 
218 1 12.6555 21.567 -2.87306 -0.00728247 0.0222387 -0.00267327 
224 1 13.9827 21.7623 -2.4141 -0.00310907 0.0148997 -0.00962634 
235 1 14.8804 19.7576 -3.41551 -0.0162144 0.0263069 -0.00372178 
232 1 15.0843 20.6898 -2.46456 0.0112823 -0.0112078 0.00415182 
231 1 13.7341 22.5245 -1.24272 0.0132907 0.000111483 0.00275967 
244 2 16.0519 21.0224 -1.92753 -0.0181201 -0.108015 -0.0457441 
229 1 12.822 23.4895 -0.611762 -0.00600894 0.00438323 -0.0154735 
243 2 14.7172 22.6689 -0.624481 0.0102521 -0.0236763 -0.0179089 
551 1 18.0804 35.4864 -0.999859 -0.00821115 0.0150599 0.00124395 
561 1 17.3302 35.3713 -2.22226 0.00834574 0.000582185 0.00159542 
573 2 16.9457 34.5102 -2.76712 0.088043 0.0139571 0.0506705 
552 1 18.4751 32.3985 4.32531 -0.0166259 0.010647 0.00462387 
241 2 13.4566 23.8721 0.315667 0.0463152 0.0577338 0.0305425 
385 2 19.1245 33.8607 -1.12637 -0.00994285 0.107212 -0.0141585 
562 1 19.0834 34.4908 -0.295588 0.0170128 0.00250827 0.00167584 
560 1 18.2761 33.6393 3.95154 -0.0170918 0.0160862 -0.0107595 
550 1 17.8408 34.7648 3.98655 -0.0132042 -0.0122385 0.00315755 
576 2 18.1835 32.7721 0.892218 -0.0268278 -0.0478154 0.0143304 
559 1 17.4321 35.4022 5.299 0.0195147 -0.0144902 -0.019671 
563 1 18.3545 31.2673 4.69344 0.0130717 0.00308449 0.0178458 
572 2 17.5111 30.876 4.99237 -0.0081495 -0.0500157 0.011088 
421 2 20.0979 35.0666 -0.364764 -0.0356072 0.008615 -0.00642018 
539 2 12.4588 16.1001 -0.0328618 0.0485959 0.049904 -0.0248715 
545 1 17.4404 35.7805 0.223106 0.00264829 -0.00200768 -0.0190462 
544 1 17.7503 35.5356 2.44572 0.0202787 0.0040443 -0.0113132 
179 2 12.8878 15.5451 0.073603 -0.000108706 0.00806713 0.0728716 
105 2 38.3529 -7.42541 2.81503 -0.0256515 0.115195 0.0155139 
466 2 37.8463 -7.72495 3.6289 0.065454 0.0434887 0.109226 
352 2 39.5793 -8.84076 29.9986 0.0146852 -0.0137104 0.0194004 
574 2 39.519 -9.41999 29.3065 -0.0564417 0.064339 0.0682605 
278 2 38.0538 -9.01286 13.3999 -0.01797 -0.110108 0.044739 
177 2 47.4451 7.92186 15.4774 -0.0668887 0.0345258 0.0717073 
283 2 38.2032 -8.53012 12.6571 0.0719409 0.00739543 -0.00555307 
95 1 46.723 18.3958 4.54971 -0.0108537 -0.0125344 -0.00213067 
47 1 59.9113 27.8945 -10.3624 0.0366589 0.0252677 0.00903395 
66 2 59.1324 27.3884 -10.8919 -0.0146808 -0.0033558 -0.077619 
90 1 46.075 17.0398 -1.51475 -0.00426338 0.0326162 -0.0043744 
102 2 45.8224 16.6594 -2.48042 -0.124708 -0.0232551 -0.0223399 
101 2 43.6558 16.448 -1.51072 -0.0261362 -0.0301825 -0.125346 
81 1 44.8769 17.5181 -0.809445 0.0086755 0.0100351 -0.00679943 
98 2 41.5183 18.3105 -2.15989 -0.0613793 -0.0279606 -0.0114465 
89 1 43.5076 17.3974 -1.49679 0.0361121 -0.00249262 -0.0110441 
86 1 42.4347 18.3317 -1.28578 -0.0143616 -0.013341 0.0105106 
79 1 42.7821 19.4322 -0.524701 -0.000126785 -0.0158574 -0.0209126 
107 2 47.5947 17.9338 4.94881 -0.0366564 -0.0794895 -0.108019 
93 1 47.3283 16.8379 -0.715613 0.0135939 0.0412232 0.0194328 
83 1 47.4366 17.8394 0.233743 0.00582889 -0.0310245 0.00263864 
94 1 48.5044 17.821 1.22138 -0.00695008 -0.00268039 -0.0118897 
106 2 49.4815 17.7192 0.895143 0.15418 -0.0497327 -0.0577231 
97 2 42.4898 20.5733 -0.389835 0.0546282 -0.0163186 -0.0376687 
84 1 47.0996 18.7052 3.20236 -0.00607157 -0.0106393 0.0231239 
77 1 46.1549 18.5708 0.792694 -0.00843936 -0.00518278 -0.00912144 
355 2 42.827 20.5525 1.79323 0.0481617 0.0321714 -0.0171446 
74 1 43.694 19.7853 1.83794 -0.0127571 0.0165187 0.00347637 
73 1 43.6386 19.1008 0.690651 -0.0160699 -0.00331392 -0.0247178 
75 1 44.8869 18.2663 0.240258 -0.0319037 -0.00270232 -0.0170041 
76 1 44.8837 20.1164 2.60446 -0.0178737 0.00236907 0.0103909 
91 1 44.6516 21.5555 4.76567 -0.00786139 0.0136673 -0.00722108 
78 1 45.9947 19.3899 2.05146 -0.000905265 -0.00374888 -0.00597533 
82 1 44.9259 20.328 4.10343 -0.00351363 -0.015299 -0.00604626 
104 2 45.6812 19.5183 5.99614 0.0524579 -0.000637111 0.0672049 
92 1 45.9859 19.4661 4.8704 -0.00287671 0.00100905 0.00491467 
103 2 44.9983 23.8474 4.91536 -0.0318781 0.0939847 0.0523305 
88 1 44.5825 22.8378 5.20175 1.42273e-05 0.015041 0.0430799 
96 1 47.8726 18.3037 2.37241 0.00767078 -0.0198495 0.00332812 
450 1 56.1511 24.6144 23.3326 -0.0198658 0.0109761 -0.00049699 
462 2 55.8927 24.8684 22.2942 0.0872739 -0.0619994 -0.0354387 
467 2 59.584 19.9124 25.4623 0.0108548 0.0273583 -0.0334897 
455 1 59.5471 20.8877 26.2525 0.0176534 -0.0116155 0.0194974 
452 1 59.3625 20.3435 27.4307 0.0184381 0.0107229 -0.0289185 
444 1 58.9009 22.2443 25.7504 -0.0119793 -0.00199732 -0.0218882 
438 1 59.4396 22.9506 27.1175 -0.00913509 0.0100423 -0.00461774 
442 1 59.3152 20.7793 28.556 0.015963 -0.00966693 0.0276006 
436 1 59.544 22.2956 28.4871 0.014023 -0.0218386 0.00533092 
456 1 58.383 22.9791 24.9318 0.00938172 -0.0278667 -0.0196137 
468 2 58.1944 22.4141 23.997 0.0441432 0.0694671 0.0441626 
451 1 58.4774 20.1731 29.7527 0.00719949 0.0247459 -0.0211947 
434 1 58.7131 23.0038 29.2677 0.00604731 0.00408419 0.00236129 
62 2 58.7735 27.8824 32.6905 -0.0135687 -0.118364 -0.0160615 
465 2 55.9682 25.1451 26.0077 0.0125174 -0.0249515 -0.0572216 
454 1 57.8117 23.9697 25.7862 0.0270723 0.00598495 -0.0133013 
443 1 56.6767 24.3652 25.5954 0.019365 -0.00926327 0.00341967 
453 1 56.6968 23.9585 24.0615 0.0153673 0.000175299 0.00221184 
441 1 59.2732 26.3868 27.5808 -0.0220308 0.00634391 -0.00404049 
458 2 59.2754 28.5872 28.8182 -0.00143856 0.0442212 0.0387007 
435 1 58.9145 24.9638 27.9981 -0.00605669 -0.0321706 -0.0118275 
437 1 58.4606 23.8288 27.0563 -0.0131872 -0.0213797 -9.95882e-05 
433 1 58.9157 24.428 29.2715 0.00507249 -0.00627257 -0.0139591 
463 2 57.8381 19.8123 29.1295 -0.0962733 -0.0460983 0.0156816 
448 1 58.1803 20.9799 31.0047 -0.00446231 -0.00400691 0.0189476 
460 2 58.1133 20.4669 31.9145 0.00147427 0.0835615 -0.0622006 
440 1 58.5537 22.2876 30.6305 0.01589 0.0185596 -0.00156338 
447 1 58.5403 23.1697 31.7882 0.0131618 -0.0176459 -0.0109219 
459 2 58.5702 22.7358 32.871 0.0139741 0.0443049 -0.0118882 
53 1 59.5251 28.5976 32.686 -0.000942673 0.00581993 0.0356354 
439 1 59.4835 25.1255 30.5684 -0.0125491 0.0210944 0.013737 
446 1 59.6133 26.3493 29.8051 0.00258344 -0.00530753 0.0249001 
445 1 58.8175 24.5388 31.7156 -0.00784977 -0.00234799 -0.000311851 
457 2 59.0734 25.1501 32.7253 0.0311677 -0.00421535 0.0160127 
37 1 60.1081 30.9009 33.98 0.0356511 -0.00505057 -0.0129916 
449 1 59.4768 27.3577 28.8144 0.00670883 0.0122902 -0.0174342 
45 1 58.9239 28.9843 34.1884 -0.0311327 0.0142176 -0.0205229 
39 1 59.3345 29.9682 35.0179 -0.0215004 -2.65939e-05 0.00203843 
461 2 58.8956 26.5945 26.6125 -0.041426 -0.0275692 -0.00743972 
34 2 83.4811 -8.29985 -9.22165 0.105362 0.0020848 0.0734851 
3 1 80.4299 -11.6846 -10.5556 -0.0168544 0.0330573 0.00123182 
11 1 82.0957 -10.087 -9.26244 0.0111023 -0.0251336 0.0460083 
5 1 81.2777 -10.4779 -10.5495 0.00462799 -0.0100826 -0.00877941 
22 1 82.565 -8.78602 -9.5596 -0.0155573 0.00482186 0.0168614 
2 1 79.393 -11.461 -11.5044 -0.00130651 5.57261e-05 0.00619461 
30 2 82.6558 -10.9379 -7.23385 -0.0333701 0.0422472 0.0284028 
24 1 82.1069 -7.81431 -10.7503 0.00765672 -0.0045958 0.00281539 
213 2 79.85 -6.9643 -4.57936 -0.037867 0.123609 0.00730175 
21 1 81.9506 -11.041 -8.00218 -0.017015 -0.0166678 0.00792216 
18 1 80.8008 -11.8147 -7.78452 0.0239686 0.00782693 -0.00460039 
513 1 82.9068 5.95879 -6.8055 -0.00103893 -0.00397069 -0.0112601 
533 2 82.7638 5.00159 -6.19889 0.087672 -0.0262475 0.0826939 
521 1 81.9424 6.84068 -6.48112 0.00905002 0.0206741 0.00720518 
522 1 83.7178 6.25648 -8.05329 0.0110724 0.0269429 0.0133633 
530 2 81.115 8.39467 -5.11655 -0.071542 0.0147397 -0.0225443 
529 2 80.8064 9.679 -6.24605 0.0939408 -0.016425 -0.0385636 
517 1 81.5301 10.0297 -6.86594 0.0149289 -0.00848854 -0.00759055 
519 1 81.8666 11.3876 -7.40234 -0.0143898 0.00883791 0.0141934 
512 1 82.854 11.7511 -8.13634 0.0240933 -0.0184355 -0.00192074 
511 1 81.9869 8.82745 -7.1804 0.0160661 0.00643066 0.00507671 
506 1 83.1312 10.2436 -8.68349 0.00838911 0.0103844 0.027589 
518 1 81.3087 7.88263 -6.07721 0.00606352 0.0125611 0.00884017 
36 2 82.0847 -6.68129 -10.689 -0.0557039 0.0329721 -0.0356097 
505 1 83.3554 9.00343 -7.80036 0.0116518 0.00215812 0.0144576 
507 1 83.7628 7.82681 -8.49154 -0.00699248 -0.0180629 -0.00016719 
1 1 78.1541 -11.7861 -11.4273 0.0215607 -0.014018 -0.0162552 
361 1 79.5246 -11.5578 3.61394 0.0124807 -0.00167443 -0.00773717 
7 1 76.9239 -11.6122 -11.8462 -0.00580458 -0.0027573 -0.0128505 
371 1 82.1708 -9.58838 4.32298 -0.020369 0.0215018 -0.0277733 
382 1 82.8983 -8.74466 3.32599 -0.0120095 -0.00261114 0.0282045 
369 1 81.5063 -12.0188 5.02175 0.0134752 -0.0136194 -0.0309727 
181 1 83.2771 -10.42 -2.57749 -0.014779 0.00184305 0.0182807 
183 1 82.5951 -9.25357 -2.90539 -0.0156026 -0.00443234 0.0161339 
185 1 82.91 -8.41901 -4.06634 0.0253932 0.0047837 0.0138575 
189 1 81.1498 -9.29936 -2.31865 0.0192423 0.0130593 -0.0246103 
191 1 81.9362 -7.6132 -4.48835 0.0311735 -0.00464855 0.0326255 
201 1 80.7207 -7.59819 -3.89569 -0.0105304 -0.0265371 -0.00840317 
133 2 79.3879 -7.82609 -2.48525 -0.0343168 0.00672105 0.0329955 
198 1 80.3 -8.32995 -2.59134 -0.0299853 0.00501477 0.00803273 
197 1 80.9506 -9.9048 -1.094 -0.0114336 -0.00912358 0.0245314 
209 2 80.0307 -9.49071 -0.553342 0.0135803 -0.054335 -0.0189472 
187 1 82.77 -11.2886 -1.41914 -0.00107635 -0.00644485 -0.00837993 
194 1 81.6197 -11.1369 -0.642384 -0.00434305 -0.0144182 -0.0128296 
6 1 80.7692 -9.60554 -11.5277 -0.020226 0.00526817 -0.0225512 
379 1 76.7145 -9.01288 1.57463 -0.00790026 0.00171022 0.00275905 
391 2 75.8971 -8.34241 1.44131 0.0185576 0.0549028 -0.0676823 
376 1 76.4629 -10.1079 2.09992 0.0131158 0.0193663 -0.0159611 
368 1 77.4564 -11.1679 2.36685 -0.000752372 -0.0183019 -0.00445908 
365 1 80.7665 -9.74043 4.34619 0.00938716 0.00584524 -0.00565613 
370 1 78.0615 -8.53207 2.14382 -0.00378691 0.0133754 0.0244708 
392 2 77.7871 -6.39112 1.91485 -0.0190396 -0.00126514 -0.0445226 
381 1 82.9939 -10.2642 5.27828 0.0126786 0.000619496 0.0147722 
378 1 82.7453 -11.5865 5.66907 0.0187334 0.0282267 0.0142651 
396 2 82.4856 -7.63908 1.40315 0.0888559 -0.0635883 -0.0715152 
363 1 80.7121 -11.0609 4.35699 0.000276547 0.00380041 0.0104768 
206 2 81.271 -11.808 0.202469 -0.0815329 0.0317815 0.0405282 
380 1 78.4183 -7.20754 2.40074 -0.00645542 -0.00945109 0.0179717 
364 1 79.1113 -9.28894 2.76972 -0.00706531 0.000845744 -0.00631655 
362 1 78.7661 -10.5786 2.93609 -0.00632095 0.00568868 -0.030774 
383 1 79.763 -7.36674 2.33771 0.0172461 0.00159155 0.0206203 
395 2 79.9141 -6.12469 2.23337 -0.068814 -0.0150927 -0.068044 
372 1 80.8433 -8.1751 2.71631 0.0117632 -0.0180572 -0.0130269 
366 1 80.2927 -9.19161 3.15116 -0.00593078 0.0107289 -0.00767136 
384 1 82.1883 -8.27896 2.36731 0.0116402 0.0235433 -0.0155865 
393 2 83.477 -9.64332 5.81789 0.0495005 -0.051936 0.0415834 
12 1 81.5824 -8.30984 -11.8784 -0.0202245 0.0274226 0.0225877 
531 2 80.917 12.0243 -6.85141 -0.0407898 0.0355799 -0.0443937 
25 2 74.9209 -10.4759 -12.0195 0.0165882 0.00909672 -0.00436227 
299 1 82.6692 -11.8865 17.212 -0.00297158 -0.0164964 -0.019099 
309 1 82.1685 -11.9221 18.5661 -0.0123336 -0.0259918 -0.0170429 
310 1 80.2743 -11.5069 15.6836 -0.0122517 -0.000200667 0.0187772 
306 1 81.4942 -11.6583 16.4157 -0.0211055 -0.0238977 -0.0019939 
304 1 74.7366 -11.0224 18.4866 0.0131602 0.0217281 -0.00397427 
303 1 76.2126 -9.47385 19.608 0.0019625 0.00476482 -0.0269698 
301 1 77.4581 -9.27189 20.2143 -0.0122286 -0.00232032 0.0202908 
313 2 77.5129 -8.76075 21.06 0.043056 0.00963677 0.0578452 
315 2 75.2347 -9.2126 19.9297 0.0124965 0.00412655 -0.01762 
296 1 76.2326 -10.436 18.6084 0.00818322 -0.0158645 0.0373674 
290 1 77.4136 -11.0634 18.1269 -0.0129188 0.0385342 -0.00847693 
316 2 73.85 -10.3698 18.2743 0.085892 0.099433 -0.0088395 
295 1 78.5871 -9.79637 19.7294 0.000671802 0.022265 0.0039966 
317 2 82.1376 -10.1534 20.1588 0.00780726 -0.0510331 -0.0175976 
302 1 79.8016 -9.60523 20.4741 -0.0109347 0.00512471 -0.00578946 
314 2 80.0301 -9.72724 21.5389 -0.00814871 0.0188787 0.0271734 
289 1 78.5065 -10.1747 18.4889 0.00112699 -0.00843841 -0.00777422 
305 1 81.0451 -10.4599 20.0423 -0.0131242 -0.0128248 -0.00977538 
297 1 80.8749 -11.1555 18.6245 0.0150514 -0.010185 -0.016431 
291 1 79.7459 -10.8343 17.9323 -0.00284284 -0.0275129 -0.000518923 
537 2 72.8156 1.09903 22.2019 -0.019333 -0.0709552 -0.0179315 
540 2 73.3678 0.686328 22.5343 -0.0103478 0.0168529 0.000989701 
477 1 72.9669 10.9493 30.0952 -0.00734525 0.00418978 -0.00482402 
501 2 72.7833 8.90673 29.5918 0.0638433 0.0422749 -0.0522959 
500 2 73.5928 9.29195 27.5675 0.0236518 -0.0175559 -0.0308036 
474 1 72.4203 11.2933 27.4265 0.0152493 -0.0131291 0.00703254 
491 1 73.466 10.287 27.8199 -0.0213948 -0.00698579 -0.00110096 
31 2 76.203 -8.25993 34.2153 0.0766103 -0.0307764 0.042977 
16 1 76.6303 -9.09397 33.5938 -0.0182639 0.00453095 -0.00628283 
28 2 76.0384 -9.76958 33.1046 -0.0739728 0.0515438 0.0134573 
13 1 75.5673 -11.2239 36.0049 -0.00979283 -0.0113665 0.0193269 
486 1 68.8471 11.7398 20.4791 -0.0182407 -0.015328 -0.000954412 
490 1 70.5655 11.8715 24.013 -0.00897179 0.0209441 -0.0228047 
489 1 69.3248 11.8041 21.7577 0.0127889 -0.0329147 -1.56111e-05 
35 2 81.4915 -6.74961 34.7421 -0.0079308 0.107834 0.0302012 
32 2 79.7109 -7.77069 33.0581 0.0239154 -0.075028 -0.00958787 