ITEM: TIMESTEP
970000
ITEM: NUMBER OF ATOMS
576
ITEM: BOX BOUNDS pp pp pp
-1.2000000000000000e+01 8.4000000000000000e+01
-1.2000000000000000e+01 3.6000000000000000e+01
-1.2000000000000000e+01 3.6000000000000000e+01
ITEM: ATOMS id type x y z vx vy vz 
130 1 2.46543 -0.916666 -7.22415 -0.0205273 -0.00602703 0.00575758 
141 2 5.03287 0.9103 -7.46259 0.0815423 0.0717047 0.00733705 
132 1 1.0708 -0.812299 -6.77224 -0.0192566 -0.000445647 0.0149974 
105 2 6.02983 -7.63597 -3.03664 0.0490301 -0.00915182 0.0276972 
466 2 5.48408 -7.24587 -3.32937 -0.0390619 -0.021094 0.0912718 
129 1 5.1507 -0.183074 -6.91929 -0.0121484 0.0209273 -0.0156852 
138 2 7.0462 0.498148 -6.29971 -0.0288704 -0.0211448 -0.0478688 
417 1 -2.77978 4.94636 -10.2103 0.0263826 -0.00389504 -0.0259591 
407 1 -2.83872 5.95556 -9.92845 0.0134372 0.0436035 0.00507389 
429 2 -3.07001 3.844 -10.099 0.0246639 -0.0684464 0.0496732 
142 2 3.11552 -0.707597 -8.08693 -0.00185056 -0.0354074 -0.00414431 
418 1 -3.79303 9.86074 -7.24588 4.90184e-05 -0.00289353 -0.0222843 
420 1 -4.75616 8.5025 -7.46097 -0.00885406 0.0167612 0.00319097 
405 1 -4.22139 7.43397 -8.17015 0.00392167 -0.0164637 0.0161125 
250 2 -4.43154 10.0231 -6.36724 -0.00347461 0.0376618 0.000718413 
399 1 -2.96176 8.56279 -9.7179 -0.00726637 -0.00701965 -0.00355892 
408 1 -3.68405 10.5893 -8.44714 0.00691218 0.0165165 0.000501549 
414 1 -3.16344 7.37964 -9.24945 0.0173912 0.0120979 -0.0146966 
496 2 3.62816 -1.87398 0.970882 0.0547779 0.0936171 -0.0110888 
95 1 -10.8479 -4.99151 0.335945 -0.00935887 -0.00429986 -0.00734612 
401 1 -3.26038 9.90056 -9.76674 0.0249836 0.00249558 -0.00873583 
430 2 -5.0559 6.54051 -8.29972 0.0669747 -0.0453456 0.0131214 
101 2 -8.936 -9.67185 -6.2722 -0.0582384 -0.0509416 -0.0325521 
77 1 -10.5514 -8.03141 -1.13843 0.00150265 -0.0161379 -0.0166183 
74 1 -8.77237 -6.70081 -2.85012 0.00425829 -0.0248851 -0.0182696 
73 1 -9.66228 -7.58358 -3.52847 0.0286588 -0.00784912 0.0240679 
75 1 -10.1404 -8.5324 -2.45743 0.00859249 0.0137156 -0.0199084 
81 1 -10.5252 -9.90182 -2.70442 -0.00992541 0.00785496 0.0106796 
90 1 -11.4003 -10.8566 -1.8422 0.00930613 0.00207849 -0.0202764 
79 1 -9.13039 -8.36936 -4.71833 -0.0100657 0.00690067 0.0215495 
78 1 -10.4601 -6.65497 -0.980159 -0.016979 -0.0201444 -0.0138378 
89 1 -10.2202 -10.2936 -4.09605 -0.00368861 0.00751357 -0.00440527 
86 1 -9.59951 -9.63841 -5.23697 0.00114246 0.000881265 -0.0245778 
93 1 -11.1536 -10.3106 -0.414175 -0.0111935 0.0215619 0.011761 
97 2 -8.33501 -8.13824 -5.23064 -0.0466845 0.0247953 0.0859283 
355 2 -7.77417 -6.16723 -3.42263 0.0155967 -0.00567358 0.00746753 
76 1 -9.51346 -5.92537 -1.9237 0.00762045 -0.00950766 0.0216091 
91 1 -8.02457 -3.95865 -1.73616 -0.00837094 -0.0253693 0.0175195 
104 2 -9.71651 -3.27705 0.0012096 -0.0916985 -0.049999 -0.0140524 
82 1 -8.93672 -4.92785 -1.14924 0.0171405 0.00476588 0.0292913 
92 1 -9.76538 -4.20691 -0.0150676 0.00202107 -0.0167821 0.0143006 
88 1 -7.30779 -3.04004 -1.52198 -0.0130611 0.00403312 0.000872114 
103 2 -6.68553 -3.2421 -2.4969 0.043866 -0.0490824 -0.00765835 
116 1 2.56823 -2.14322 -1.11655 -0.0244745 0.00163283 -2.89484e-05 
110 1 2.73491 -1.10838 -2.10683 -0.0195079 -0.0200057 0.00778433 
112 1 1.64667 -1.16368 -3.10243 1.49829e-05 -0.00876709 0.00363623 
114 1 2.06376 -0.54662 -4.33014 -0.0118519 0.0234339 -0.0273956 
124 1 1.01711 -2.29992 -0.805227 -0.0126196 0.0105519 -0.00212302 
111 1 4.34676 -0.394909 -3.88451 0.00872587 0.00838162 0.0183556 
109 1 4.02152 -0.808938 -2.54073 0.00502935 0.0030438 -0.0348529 
113 1 3.44121 -0.567352 -4.9659 0.0205904 0.0124473 0.00223933 
119 1 3.6673 -0.5743 -6.34448 -0.00997815 -0.00546236 -0.00619223 
127 1 0.273322 -1.07258 -1.05473 -0.0134944 -0.0143491 -0.00347896 
118 1 0.207431 -0.972864 -2.60286 -0.00808089 -0.014185 -0.00604352 
128 1 -0.86667 -0.691049 -3.46559 -0.0113632 0.00406523 0.0105149 
115 1 5.356 -1.5278 -2.11694 -0.0071532 -0.00968314 0.00982322 
120 1 0.937283 -0.454025 -5.32258 -0.0169698 -0.0322753 0.00893842 
139 2 5.4239 -1.7721 0.51098 -0.0873686 -0.0123421 -0.11737 
123 1 3.55285 -1.75762 -0.260643 0.00732578 0.00574788 -0.0149098 
117 1 5.6778 -0.0588317 -4.50669 0.0146208 0.0242639 -0.0140207 
125 1 6.6589 0.258053 -3.54714 -0.0309725 -0.0134305 -0.00237557 
137 2 6.31347 -10.5124 2.79105 0.00603302 -0.0964828 0.0510587 
126 1 6.28204 0.0927781 -5.80701 -0.00180797 0.0157566 -0.00354003 
134 2 7.5513 0.889557 -3.87644 -0.0677596 0.0818465 -0.101036 
122 1 6.6088 -0.995225 -2.82299 -0.00599546 -0.00795735 -0.0262174 
143 2 -0.94901 -0.598593 -5.73854 0.0232001 -0.0275981 0.0407349 
140 2 -1.93416 -1.15313 -3.52768 0.00134392 -0.0301185 -0.0353507 
131 1 -0.429819 -0.493611 -4.93291 -0.00951623 -0.00974672 0.0183647 
136 2 -5.60888 8.82861 -6.90896 0.0599333 0.107162 0.045613 
83 1 -11.1493 -8.82771 -0.168295 0.000345955 0.0200722 -0.00932387 
94 1 -11.2919 -8.59811 1.29196 -0.0287616 0.0124641 0.00416913 
102 2 -11.8931 -9.55199 1.65797 0.0294916 -0.0376659 -0.0103971 
96 1 -11.6956 -7.18925 1.25184 -0.0101656 0.0198891 0.000724295 
121 1 4.98862 -1.60617 -0.439439 -0.0126723 0.00744623 0.0231226 
84 1 -10.7599 -6.43146 0.294346 0.0158486 -0.00565186 -0.00946535 
107 2 -11.675 -4.45964 1.0364 -0.00350122 0.0653747 0.111031 
426 2 -3.1167 12.0224 -6.98775 -0.0331114 0.0486362 -0.0272605 
71 2 -4.14759 4.35735 17.8368 -0.00137422 0.0869084 0.0646053 
504 2 -4.40066 4.36772 18.5812 0.055915 -0.0365812 0.0953711 
314 2 -10.8706 -10.6263 18.0315 -0.0679162 -0.0325422 0.00266967 
135 2 2.36936 4.33728 15.4854 0.0693279 0.0548329 0.00969001 
282 2 2.20414 3.9056 14.7801 -0.0376774 -0.00391507 0.00688036 
492 1 -11.3331 -11.7094 17.9997 0.0060903 0.0077135 0.0197692 
29 2 -8.19329 17.7728 -3.79709 -0.0799786 0.0513545 -0.0377784 
397 1 -6.48377 16.7913 -5.41158 0.000759624 -6.73231e-05 0.0228735 
425 2 -5.32692 15.001 -5.23218 -0.0265554 -0.0998264 0.038013 
400 1 -4.73443 13.0311 -8.07152 -4.00733e-05 -0.00015007 0.0217272 
404 1 -5.40709 16.5281 -8.21337 -0.0174045 0.0112849 0.023251 
398 1 -5.53644 15.2387 -7.44997 -0.0212958 -0.00814149 0.00587939 
17 1 -6.16178 15.4979 -5.93945 -0.00212457 -0.0113823 0.0062023 
415 1 -5.54706 13.9882 -8.07652 -0.0168576 0.00189604 -0.019594 
412 1 -5.32154 16.1064 -9.67159 -0.0364717 0.0116206 0.0166635 
406 1 -5.33448 14.6952 -9.59731 0.0126057 -0.0351044 0.0105552 
424 2 -5.2688 17.0703 -10.4119 0.117636 0.0814306 0.00747541 
416 1 -5.30016 13.8451 -10.7676 0.00327625 0.0125816 0.0052378 
409 1 -6.272 17.9402 -6.20558 -0.0033845 -0.0175907 0.0153825 
411 1 -6.17471 17.7822 -7.71519 0.00490939 -0.000324891 -0.00375364 
423 2 -6.55473 18.7676 -5.85852 0.0588368 0.0133666 -0.0313978 
427 2 -6.57169 18.5 -8.43403 -0.0488716 -0.0780811 -0.0534547 
388 2 -2.31699 26.5237 -6.31746 0.0314398 -0.0186263 0.0271578 
239 1 -3.55349 24.5572 -7.19738 -0.00370612 0.0294682 -0.00612515 
218 1 -1.74719 23.2266 -10.0449 -0.00121546 -0.0109785 0.00274211 
222 1 -0.946759 23.6682 -8.02868 0.0084659 -0.00646791 0.0168613 
228 1 -1.46051 24.4718 -6.85445 0.0130562 -0.0213791 -0.0179091 
220 1 -2.18985 23.2639 -8.81701 -0.00152239 0.00917479 -0.0239169 
236 1 -2.43224 25.4691 -6.83646 0.0252599 0.00918695 0.0221684 
226 1 -3.48069 23.5419 -8.24205 -0.00250711 -0.0112078 -0.00442733 
217 1 -0.38214 22.693 -10.2176 -0.0117542 0.0163673 0.00934002 
235 1 -4.67923 23.4219 -9.16112 0.00348947 0.0244082 0.00677907 
224 1 -2.78267 23.4507 -11.2149 -0.0222144 0.0148119 0.015149 
232 1 -4.343 23.3826 -10.4318 -0.0164296 -0.0228373 0.0112092 
80 1 7.21144 33.7666 4.69688 0.000823001 -0.00792369 -0.0283382 
221 1 0.385626 23.2059 -7.89888 0.0226438 0.0369135 0.00549382 
227 1 1.42417 23.3761 -6.9255 0.0110808 -0.00317079 -0.0168969 
219 1 0.586022 22.4174 -9.20871 -0.000258214 -0.0142032 -0.0214053 
246 2 3.73651 23.9689 -9.61841 0.0037571 -0.0196203 0.0195944 
237 1 2.91108 23.5773 -7.52372 0.00583625 0.004481 0.0138517 
225 1 1.857 22.759 -9.6983 0.0116075 -0.0229895 0.0110965 
234 1 2.97876 23.3927 -8.93474 -0.0213227 -0.0143002 -0.00904271 
230 1 1.81535 22.7674 -11.117 0.00921363 0.0121447 0.00985149 
223 1 0.366007 22.3652 -11.4506 -0.0186074 -0.00823297 0.00219506 
233 1 3.29271 22.4072 -11.3413 -0.0167644 0.0277111 -0.000876405 
249 2 3.01502 24.3497 -6.6169 -0.0128685 0.146169 -0.068865 
475 1 9.1553 35.0401 4.24003 0.0454833 -0.0190274 0.00404158 
251 2 -4.15649 24.4418 -6.42635 -0.0378356 0.00417922 0.0398312 
247 2 -5.79349 23.2249 -9.07857 0.0341387 0.00276512 -0.0769647 
403 1 -7.11558 17.3124 -3.8215 0.00598352 -0.00571583 0.0160014 
410 1 -5.89978 16.5566 -1.78501 0.0204641 0.0123726 0.0132111 
14 1 -5.93605 16.3598 -0.551451 -0.00883131 -0.0212541 -0.00304316 
422 2 -5.11161 15.4489 -0.246489 0.0592404 -0.00761289 -0.00183147 
413 1 -6.24793 16.8549 -3.12728 0.0040998 0.0112867 0.0171567 
240 1 -0.568403 24.1727 -5.7375 0.0243963 0.00475209 -0.0111241 
252 2 -1.38075 24.6144 -4.9815 0.0421463 0.00666169 0.0783031 
238 1 0.827685 23.7055 -5.72575 -0.0020275 0.0220185 -0.0138407 
357 2 1.44215 24.0021 -4.77833 -0.0534781 0.105236 0.0676028 
108 2 11.6933 33.1313 6.52968 -0.012871 -0.0553413 0.0391662 
402 1 -3.82316 12.1326 -7.9627 0.0263835 -0.0193613 0.0398982 
485 1 11.1816 33.8995 5.98261 -0.00654098 0.0199939 0.0064112 
482 1 10.0178 34.2561 5.2974 0.0202059 -0.0129156 -0.018048 
85 1 5.86938 33.8944 4.61195 -0.0169108 -0.0308067 -0.0140819 
100 2 7.80684 32.8365 4.66207 -0.000214034 -0.0608964 0.0165206 
87 1 7.75144 34.7425 3.81017 -0.00329787 -0.0140642 -0.0131545 
179 2 9.92625 34.7744 -3.5061 0.0499409 0.061027 0.119586 
539 2 10.016 34.9107 -2.51623 -0.03482 0.126837 0.139965 
242 2 4.09199 21.7848 -10.5425 -0.0383484 0.0088195 0.000450017 
99 2 7.35663 35.1893 2.8739 -0.0233509 0.0374852 -0.0437088 
244 2 -5.07198 23.2459 -11.2208 0.00182164 0.0524029 0.0687503 
419 1 -5.04606 13.0555 -11.8444 0.00483195 -0.0180076 -0.00078932 
498 2 11.9376 34.6054 5.47645 0.0256472 -0.0192432 0.0508 
494 2 10.0274 35.4813 3.64557 0.0030631 -0.0287624 -0.0364547 
569 2 4.82243 24.0411 32.5784 0.0839047 -0.0646163 -0.000215949 
543 1 5.703 23.7622 31.9162 -0.0081907 -0.0227123 -0.00715558 
173 2 -11.365 21.9119 18.9942 0.0729138 0.00386973 -0.0171153 
478 1 -11.8352 30.1547 16.7815 -0.000766024 -0.0203986 -0.01835 
544 1 7.92034 23.4062 30.2649 -0.000641118 3.06283e-06 -0.00334478 
497 2 -1.29453 15.6369 19.272 0.0395668 0.00709252 -0.00191618 
469 1 -11.7205 29.1605 21.7622 -0.0165411 -0.0130353 -0.000542512 
481 1 -11.9789 28.2405 20.7061 -0.015841 -0.0104896 -0.027352 
421 2 9.86146 23.3346 32.7596 0.0470327 -0.103446 -0.0220124 
564 1 9.2836 23.5183 31.9445 -0.0056205 0.00866037 0.00365363 
431 2 -5.61332 13.576 35.3888 0.0470247 -0.00858731 -0.0941978 
174 2 -11.2151 23.861 20.006 0.0332097 0.0848866 0.0320079 
541 1 5.52881 23.3894 30.4961 0.00840996 -0.00242444 0.00897319 
480 1 -10.8132 34.8943 18.2383 0.0107406 0.0093942 0.0063629 
473 1 -10.7691 33.7807 18.4733 -0.00874629 -0.0277716 0.00853118 
532 2 10.8319 24.645 30.9839 0.0509574 -0.108202 -0.00619761 
490 1 -11.1272 32.4205 18.6106 -0.0421609 0.0297875 -0.017876 
474 1 -11.8313 32.3297 19.9405 -0.00605166 -0.0374046 0.0061035 
471 1 -11.6329 30.7388 21.771 -0.00270929 0.006888 -0.0104132 
545 1 6.59255 22.8014 32.4435 0.0179835 0.0379346 0.037949 
562 1 9.82778 24.9607 31.323 -0.0234437 0.0197678 -0.0337668 
551 1 6.61418 21.4668 33.0165 0.0133341 -0.00906522 -0.0143388 
488 1 -11.819 33.0835 22.0735 -0.00749415 -0.00237109 -0.0169299 
470 1 -11.6236 30.3129 19.2483 -0.0191958 -0.00417332 -0.00344621 
472 1 -11.4625 31.0665 18.264 0.00271864 -0.0117708 0.014156 
547 1 4.35292 23.5736 29.7023 -0.0150175 -0.0141177 0.00955081 
565 2 5.35057 25.3302 29.0513 0.0780579 -0.00475295 -0.0119712 
553 1 4.83927 24.5148 28.4559 -0.00505634 0.00747606 0.0216088 
567 2 4.15028 24.7292 27.6421 0.0384278 -0.0635332 0.0624522 
554 1 3.26871 22.7271 30.1629 0.0105838 0.0125274 -0.0233138 
548 1 5.61205 23.6658 27.3088 -0.0134069 0.0116627 0.00759101 
568 2 7.68721 21.6399 28.4693 -0.063716 0.0676549 0.0298648 
556 1 7.83984 22.3767 27.5051 0.0102466 -0.00190899 -0.0298472 
555 1 6.81562 23.5158 28.0214 -0.0296778 0.00469505 0.00941808 
571 2 9.4059 22.6309 26.5839 0.029684 -0.0533602 -0.0299477 
559 1 9.31492 23.2644 27.7434 0.0190997 0.00945257 -0.0346515 
550 1 9.98097 23.5847 28.991 -0.00413843 0.00642837 0.0145415 
542 1 6.66207 23.6107 29.522 0.0165642 -0.00872961 0.00708683 
572 2 9.93523 27.4931 29.7217 -0.0329449 -0.00975212 -0.00626841 
552 1 8.35091 25.8602 29.6848 -0.0372764 -0.00396145 -0.0156559 
563 1 9.17851 26.8963 29.2986 -0.0023189 -0.0260834 0.0361026 
177 2 8.50801 27.5125 28.4983 -0.0216949 -0.0420699 -0.049791 
560 1 9.04759 24.4168 30.0251 0.00808261 -0.0177758 -0.00196541 
245 2 3.46 22.2355 35.5149 0.143448 0.0574991 -0.0126303 
428 2 -4.08489 12.5698 35.8647 -0.0522873 0.00179173 0.0477206 
477 1 -11.4572 31.7619 22.7445 -0.0109197 0.0093343 -0.0208121 
576 2 9.6918 26.0791 31.5211 -0.0142635 0.00524285 0.0177022 
231 1 -2.05759 23.109 35.4268 -0.0123269 0.015175 0.0067006 
229 1 -0.600926 22.9624 35.4702 0.0185027 0.00974886 0.0124964 
243 2 -3.0574 22.8134 34.6883 0.0381277 -0.0163814 0.0254819 
557 1 2.76191 22.1527 31.3073 0.0234757 -0.00642194 0.00489183 
549 1 3.24103 21.4919 32.1945 -0.00856871 0.000583331 -0.0166307 
566 2 3.7157 19.9709 33.814 0.0721925 -0.072654 -0.0504394 
558 1 4.18236 20.6287 32.9891 -0.00713951 0.0114691 -0.0035855 
561 1 5.34374 20.7847 33.0192 -0.00900788 -0.0317012 0.000150352 
241 2 0.0164887 22.8962 34.5657 -0.0287685 0.0394127 -0.00396559 
162 1 -11.6316 24.6305 19.3832 -0.00754328 -0.0250224 -0.00852732 
573 2 7.08416 21.6867 34.0473 0.0364599 0.0485641 0.001237 
546 1 7.8816 23.2593 31.6717 -0.016891 -0.000398234 -0.0184604 
501 2 -11.7903 33.7384 23.0476 0.0529574 0.0434467 -0.0565625 
493 2 -11.6202 26.3805 21.2632 0.0707362 -0.0177359 0.0180586 
352 2 34.7104 -9.29448 -4.07289 0.159272 0.0282619 -0.102269 
203 1 33.7772 9.6582 -0.667038 -0.0245972 0.0143667 0.00728865 
204 1 33.7482 6.05629 0.576183 -0.00982095 -0.00914972 0.0185632 
212 2 34.5232 5.79036 1.24924 -0.0258244 0.00622519 0.0241316 
190 1 32.7555 11.6684 -0.0555065 -0.0130908 -0.032633 0.0201981 
192 1 33.9091 8.22314 -1.2257 0.0108446 -0.00289602 0.0174116 
202 1 33.9642 7.43219 -0.0202621 0.0204241 -0.0200237 0.0149117 
186 1 34.8001 10.7479 -0.665328 0.0139781 0.021765 0.0165844 
215 2 31.8418 9.60059 0.0305806 -0.0333778 0.0443356 -0.0468 
200 1 32.6493 10.1458 -0.0988842 0.00855923 -0.0263884 -0.0311357 
574 2 35.255 -10.1947 -3.96648 -0.0333459 0.00886803 0.027469 
36 2 15.8296 -11.3583 -10.8403 0.00277201 -0.0720787 0.0205999 
70 2 21.8913 -7.88441 2.91616 0.0302573 0.050988 0.0594977 
25 2 15.6627 27.8819 -8.26908 0.061505 0.057763 -0.0692759 
13 1 16.238 28.8139 -8.77988 -0.0153895 0.00335425 0.00658909 
15 1 17.3291 28.4148 -8.01801 -0.0459512 -0.00229142 0.00553706 
26 2 13.4339 30.4327 -9.23127 0.0751447 0.0119132 0.0716922 
27 2 19.0753 27.8267 -6.37783 -0.0209339 0.0832636 0.0913381 
8 1 18.5528 28.8793 -8.26312 -0.0289575 0.0295364 -0.0141538 
7 1 19.6533 28.2789 -7.463 -0.0121185 0.0136715 -0.0255761 
3 1 16.1103 30.2726 -9.30033 -0.0242545 0.0275921 0.00517445 
18 1 13.7585 31.3297 -9.89387 0.016013 -0.00154953 0.00775532 
22 1 14.7779 34.8912 -11.3218 -0.0100589 -0.0159044 0.0044858 
9 1 15.2927 31.2651 -9.86021 0.0173377 -0.0197051 -0.00174734 
12 1 16.9269 34.7766 -10.2864 -0.0106549 -0.00697765 -0.00609138 
6 1 16.6092 33.3061 -10.2672 -0.0271372 0.00929097 0.0106309 
5 1 15.3918 32.7061 -10.0798 0.0245906 0.00305479 0.0207738 
343 1 29.2468 33.7745 10.6374 -0.0211008 0.00112068 0.00472434 
181 1 35.9497 13.4849 -0.884925 0.0207474 0.0100775 0.00995277 
11 1 14.2701 33.6467 -10.6405 -0.0174506 -0.0162904 0.00821093 
24 1 15.7581 35.6074 -10.3482 0.00333815 0.0323688 0.0031608 
21 1 13.2741 32.7661 -10.0798 -0.00695029 -0.00560816 0.0302026 
1 1 18.4549 30.5716 -8.39772 -0.0283317 0.0385416 -0.00586032 
2 1 17.3443 31.0382 -9.27695 -0.00180885 0.0133367 -0.00623806 
16 1 19.7253 31.1064 -8.23086 -0.00410186 0.000294025 0.000471076 
28 2 20.5248 30.5293 -7.69825 0.0102067 -0.00497158 -0.0193286 
19 1 20.1312 32.363 -8.93541 -0.00383334 -0.0108175 -0.00111393 
10 1 19.0788 33.2435 -9.41431 0.0112902 0.00411564 0.00352413 
31 2 21.125 32.4666 -9.13359 -0.0218948 0.011128 -0.0779205 
20 1 19.5476 34.5411 -9.85682 0.0159124 0.0303124 0.0178316 
4 1 17.7333 32.4147 -9.55074 0.00208204 0.00249306 0.00887257 
23 1 18.2145 35.3777 -10.0798 0.0111515 -0.0247586 0.0134011 
32 2 20.6354 34.7175 -10.049 0.124392 -0.0160233 -0.0127603 
199 1 31.5579 12.5907 -0.343165 -0.0100678 0.01204 -0.00469967 
344 1 26.7469 33.7531 10.825 0.0102199 0.0189369 0.00176632 
356 2 26.6995 34.5826 10.2103 -0.0104699 -0.0234551 -0.0142952 
182 1 34.4902 13.3321 -0.84257 0.0105214 -0.0158968 -0.00449991 
188 1 33.3105 14.2527 -1.11315 -0.0111599 -0.0127778 0.024925 
196 1 32.1361 13.7842 -0.732643 0.0102718 0.0110487 0.00934201 
205 2 34.1827 16.3401 -0.766224 -0.0329902 -0.0772896 0.036488 
195 1 33.688 15.739 -1.57051 -0.000734305 0.00758862 0.0309697 
207 2 32.7344 16.3067 -1.84888 -0.0674143 0.0377381 -0.0655797 
193 1 34.8428 15.2355 -2.49346 -0.0189202 0.00975259 -0.0124692 
360 2 24.3467 30.7341 11.8612 -0.0387277 0.0792734 -0.0238042 
340 1 30.4449 33.8787 11.5463 0.0163013 0.011185 0.0059065 
211 2 30.5356 12.5737 0.209912 -0.0707976 0.0151514 -0.0616621 
347 1 25.8138 33.2371 11.7076 0.00171459 -0.0293642 0.0317587 
359 2 24.809 33.8052 11.6637 0.0344529 -0.0283995 -0.0720521 
334 1 27.967 33.437 11.3494 0.016351 -0.0213732 0.00418032 
30 2 12.5015 33.4642 -9.50925 -0.00971514 0.00514639 -0.0204151 
208 2 34.8047 16.3703 -2.8758 -0.0107904 0.0223999 0.0099368 
394 2 33.8025 17.6359 9.95401 -0.0895366 -0.043942 -0.0823616 
144 2 33.0381 17.4332 10.5555 0.0363982 0.0476454 -0.0375229 
184 1 34.0329 12.0272 -0.760542 0.0159865 -0.00125672 0.0181007 
216 2 26.1995 27.6563 15.1514 0.019508 -0.0508042 -0.0604061 
342 1 28.399 28.318 15.2652 0.0025091 -0.0150198 -0.0218063 
345 1 27.1154 28.2951 14.735 0.00176332 -0.0111982 -1.24687e-05 
354 2 28.5651 27.7964 16.2065 -0.0194199 -0.00132374 0.0675128 
353 2 31.1127 28.2208 15.902 0.0193355 0.0253815 0.0248666 
351 2 32.37 34.381 13.2348 -0.0941399 -0.000841252 0.0633757 
358 2 25.3103 28.865 12.2568 0.0133141 -0.0323044 -0.0433976 
335 1 26.6836 29.4829 13.9739 0.0388172 0.0142869 0.00953874 
327 1 28.8862 30.4658 14.2773 0.0163368 0.00800365 0.0127458 
325 1 29.8714 31.2486 13.8488 -0.0157769 -0.000880279 0.00131571 
329 1 27.6025 30.6122 13.8123 0.00924194 -0.0303116 -0.00638162 
330 1 27.3429 31.6605 12.8131 0.0171491 0.00496336 -0.0158469 
333 1 29.4683 29.2749 15.0519 0.0259942 -0.0279669 -0.0161803 
346 1 25.7317 29.5664 12.9268 -0.0196508 -0.00348749 -0.0297367 
348 1 25.1089 30.6885 12.3612 0.00357583 0.00233454 -0.00258156 
326 1 29.422 32.42 13.057 -0.0158963 0.0123388 0.000625256 
328 1 28.3141 32.3676 12.2292 0.00503673 0.0078621 -0.000104036 
350 2 31.7942 30.6493 16.6505 -0.085592 -0.0560545 0.0256176 
339 1 31.7289 33.4108 13.5241 0.00292708 -0.00988487 0.0245411 
349 2 32.8532 32.5682 15.5847 0.090664 0.109562 0.00507991 
337 1 31.997 32.6506 14.6397 -0.030099 0.0224139 -0.00599776 
331 1 30.9416 31.555 14.7841 0.00301914 0.000432846 -0.000408148 
341 1 30.8798 29.242 15.5082 0.00943808 -0.0141802 0.00606169 
338 1 31.0688 30.6026 15.8597 -0.0231284 -0.016678 0.01324 
332 1 30.6328 32.9523 12.6052 -0.012749 0.000947323 -0.000353783 
570 2 29.4849 32.5913 26.8993 -0.0130152 0.0117658 -4.84786e-05 
385 2 29.4131 32.1874 27.6722 0.0206266 -0.0419824 0.103142 
176 2 28.2669 16.7731 25.3924 0.0146166 -0.0996716 0.0259697 
248 2 28.9303 16.8025 25.7816 0.0826851 -0.0301723 -0.039572 
336 1 25.8155 31.9251 12.5069 -0.0117517 -0.013665 -0.00615406 
34 2 14.1575 35.4742 35.9038 -0.00529703 -0.0507033 0.0895801 
503 2 46.1124 5.95156 -6.13116 -0.043769 0.0454178 -0.0102455 
198 1 39.0635 11.6882 -0.000832904 0.0390836 -0.00301085 -0.0127079 
287 2 55.3539 4.44165 -2.52149 0.109721 0.0151727 0.0521971 
33 2 55.098 4.16856 -2.22683 0.00714451 0.0910841 -0.110732 
185 1 36.1796 11.2212 -0.848376 0.0132031 0.0140074 -0.0140872 
214 2 39.5141 9.97963 -0.696762 0.0763471 0.0217687 -0.00884787 
201 1 38.5966 10.4819 -0.251122 -0.019971 0.00599793 0.0116906 
191 1 37.1308 10.2297 -0.382704 0.0141434 0.0231187 0.0063725 
213 2 37.0955 9.12409 -0.278681 0.142535 -0.0556443 -0.0709462 
432 2 36.9523 9.46139 20.8974 0.050527 0.00648384 0.00651545 
439 1 48.2442 -11.8149 13.9705 0.020084 -0.0210519 -0.00988085 
468 2 41.9295 -9.72409 14.8837 -0.0744309 -0.03882 -0.0138816 
456 1 42.9306 -10.3409 15.2668 -0.0107715 0.00325444 -0.0123827 
454 1 43.5813 -11.3167 14.4718 -0.0166416 -0.00786215 -0.00198532 
451 1 47.6867 -8.34917 17.8777 -0.00783144 0.0208596 0.00507357 
433 1 47.2216 -11.3221 14.8648 0.00770942 0.00697488 -0.019265 
435 1 45.839 -11.7773 14.4432 0.0136061 -0.0242916 -0.00908426 
437 1 44.9309 -11.0945 14.833 -0.0119432 -0.00267465 -0.0173622 
434 1 47.3544 -10.5721 15.8892 0.0222336 -0.00778195 -0.00918273 
438 1 45.133 -10.0404 15.7479 -0.0150495 -0.0156047 0.00856491 
444 1 43.8121 -9.70687 16.3185 -0.00158708 -0.0110468 -0.00461389 
436 1 46.4194 -9.68476 16.156 -0.0147151 -0.00548098 0.015291 
442 1 46.4405 -8.84701 17.3501 -0.0132981 0.0279589 -0.00390775 
448 1 48.8036 -9.28937 17.449 -0.00823019 -0.0254537 0.0023205 
460 2 49.739 -8.57562 17.6273 -0.0281466 0.0157 -0.0114611 
440 1 48.5637 -10.0266 16.2125 0.0607101 0.013159 -0.00778911 
445 1 49.599 -11.1237 13.9891 -0.009772 -0.00161879 -0.00159448 
457 2 50.5311 -9.98218 15.7543 0.0751548 0.0119075 -0.0268734 
447 1 49.6414 -10.2781 15.1957 0.00350559 -0.0188169 -0.0108471 
35 2 45.3552 8.9281 16.0023 0.012171 0.127202 -0.121406 
463 2 48.1974 -7.97972 18.7562 0.0396026 0.0828115 -0.0389802 
467 2 45.3344 -7.12823 17.2714 0.00498906 0.0935106 -0.0510494 
455 1 43.9451 -8.96745 17.5138 0.00597502 0.0316586 -0.00391491 
452 1 45.2504 -8.0547 17.5901 -0.0106428 -0.000108702 0.00539461 
459 2 50.3841 -11.5665 13.1954 0.121057 0.0270322 -0.0421328 
283 2 38.7868 30.9231 -2.33278 -0.0825197 -0.0622944 -0.139888 
197 1 38.1392 14.3193 -0.0989854 -0.0123189 -0.00476177 0.00173703 
187 1 36.1252 14.7644 -1.78832 0.0029719 -0.0123148 -0.0215045 
189 1 38.1126 12.7673 0.0319181 -0.000488262 0.00493262 -0.0211188 
194 1 37.2781 15.1995 -0.806875 -0.0208127 -0.0173412 -0.00588613 
209 2 39.103 14.4945 0.719511 -0.0790308 -0.0234789 0.0493189 
183 1 36.7974 12.459 -0.3016 -0.00740596 0.000259325 -0.012115 
206 2 37.972 16.2073 -1.14373 -0.0103312 -0.00162711 0.0216421 
278 2 38.8462 30.2843 -2.0451 -0.0407256 -0.0445867 -0.0773296 
133 2 40.2784 12.0957 0.0175991 -0.0164222 -0.0104824 0.0705257 
68 2 58.4091 12.0288 3.15827 -0.103009 0.0050197 0.06642 
464 2 46.7926 34.2179 11.8841 0.0380435 0.0208282 0.0261292 
210 2 54.8731 16.271 28.2591 0.0515769 -0.11575 -0.0230602 
461 2 45.1608 35.0999 12.548 0.124233 -0.0526781 -0.000810243 
462 2 41.3774 32.6417 12.9831 0.014971 0.052924 0.0141681 
450 1 41.3857 33.7451 13.1711 -0.0197016 -0.0133929 0.0105611 
453 1 42.2665 34.7662 13.2449 0.000451332 0.0123965 -0.00377296 
446 1 48.3933 35.0644 13.0131 -0.00139428 0.00472892 -0.00948112 
449 1 47.0197 34.4763 12.7852 0.0208867 0.00245082 -0.00585807 
50 1 44.0973 25.3503 30.4831 -0.0296267 0.0249681 -0.0170426 
284 2 54.9167 16.2325 29.0971 0.0287407 -0.0891871 -0.0177767 
441 1 46.077 35.4941 13.0746 0.0239612 -0.0147651 0.00629076 
458 2 48.7372 34.1397 12.9355 0.0791881 0.0305482 -0.0146778 
72 2 43.6826 17.835 26.5203 0.0133753 0.0496402 0.0449749 
63 2 41.4576 23.1942 25.9048 -0.00624941 0.0677322 0.033637 
51 1 42.1579 22.5479 26.4785 -0.0184776 -0.00334122 -0.0113952 
52 1 42.0241 21.1798 26.468 -0.00589034 0.0045027 0.0192451 
67 2 41.6431 19.4864 25.7814 0.0959937 0.0246881 0.027171 
55 1 42.2399 19.7942 26.6949 0.00660425 -0.00032774 -0.023407 
59 1 43.856 18.4473 27.4288 -0.0037101 -0.0340845 -0.00347457 
56 1 45.1114 18.5064 27.8911 0.00462471 -0.000513235 -0.00446382 
46 1 43.0377 19.5951 27.7783 0.00792757 -0.00410543 0.0114849 
40 1 43.6327 20.6108 28.679 0.0141229 0.0153546 0.00706443 
44 1 42.9304 22.8227 27.8126 -0.00314958 -0.000895378 -0.0218934 
42 1 44.8618 20.2926 29.3455 -0.0213985 0.00190641 -0.011122 
38 1 43.0124 21.8149 28.9303 -0.00914771 0.00946076 -0.00818875 
37 1 43.3017 22.6528 30.1958 0.0362733 -0.00995385 0.0144773 
48 1 45.8141 19.4538 28.4864 -0.00802274 -0.0234044 -0.00392209 
60 1 47.344 19.3834 28.2964 -0.0309119 -0.0198088 0.0204836 
49 1 42.6339 24.1329 28.4665 -0.00188516 -0.00874719 0.00523108 
54 1 47.9333 20.025 29.4807 0.00551844 0.00815544 -0.0117729 
69 2 48.9798 20.1997 29.5882 -0.0311035 -0.0430923 -0.0168911 
43 1 43.2775 24.067 29.8576 0.0107083 0.0150246 -0.00712628 
62 2 42.4309 26.6099 31.0118 -0.0552606 0.0554075 0.013982 
41 1 45.5685 21.4686 29.8001 -0.00160245 0.0022295 0.0141712 
39 1 44.6176 22.1613 30.776 0.0113934 -0.00730941 0.020066 
45 1 45.1671 22.4191 32.0797 -0.010829 -0.0151755 0.016669 
58 1 46.8901 20.8882 30.2498 0.0151065 0.018211 -0.0045998 
47 1 46.5238 22.2314 32.0948 -0.00793687 0.00494504 0.00697458 
57 1 47.6718 21.6084 31.1337 0.0143293 0.00640475 0.00295568 
66 2 46.8045 22.385 33.1164 0.0649499 0.00473206 0.0588217 
65 2 44.3278 22.4135 32.8275 -0.05823 -0.0752754 -0.0279388 
61 2 44.2276 27.1474 31.2523 0.00333354 -0.103617 0.0185928 
53 1 43.5619 26.3634 31.236 0.00944805 0.0146302 0.019301 
465 2 43.2379 36.1154 12.1935 0.0646774 0.0865316 -0.0562838 
443 1 43.1265 35.8067 13.2396 0.0215107 -0.021661 -0.000752091 
106 2 83.4859 -6.74763 1.766 -0.10783 -0.0242552 -0.105814 
540 2 64.1837 -11.0598 33.4859 -0.00509514 0.0385838 -0.0228982 
502 2 82.9437 -11.8177 14.8751 -0.0204156 -0.0404518 0.101331 
486 1 82.922 -11.7139 16.0231 -0.0351976 0.00249432 -0.000760809 
288 2 73.8119 -11.6426 31.426 0.0466096 -0.0553642 -0.0402911 
537 2 63.7712 -10.9056 34.2926 -0.102263 0.0153176 0.0567059 
489 1 83.6172 -11.7396 17.0047 -0.00824456 -0.00331434 -0.00843583 
391 2 73.5982 19.7624 6.55388 -0.0140797 0.0569014 0.00699909 
387 2 73.8181 16.8922 10.9256 0.112418 0.0121713 0.100425 
375 1 73.9473 17.9518 10.7277 0.0275838 0.0201027 -0.00479058 
293 1 69.2325 23.3969 11.4845 0.00421593 0.00014198 0.00447264 
393 2 80.902 22.3686 11.6394 0.0718238 -0.0415241 -0.00403846 
323 2 71.3184 22.846 11.5555 0.093959 -0.021956 -0.00437646 
395 2 75.2949 22.6079 5.82427 -0.00232724 -0.0148865 0.0332756 
383 1 75.8207 23.6465 7.73283 -0.00908736 0.0135555 -0.0110484 
372 1 76.7605 23.5255 8.6764 0.0229209 -0.0111183 -0.0176195 
361 1 76.1203 19.9372 11.1996 -0.0117581 -0.00427753 0.00524451 
368 1 74.2243 19.2359 9.85118 0.0157845 0.0272574 -0.0125861 
362 1 75.5736 19.7251 9.95943 -0.00506847 0.00121494 0.0164827 
376 1 73.3167 19.5124 8.71625 -0.0108468 0.00151016 0.0179918 
364 1 76.0376 20.8771 8.81516 0.0118147 -0.0171141 0.00188112 
379 1 73.8859 20.2471 7.55347 0.000666288 -0.00488269 0.0124812 
366 1 76.841 22.032 9.19291 -0.000963744 0.00352349 0.020209 
370 1 74.9737 21.2952 7.98058 0.00735391 -0.0203641 0.0357766 
363 1 77.2627 20.7897 11.4848 0.00357326 0.00619945 -0.0284404 
365 1 77.5415 21.9979 10.4719 -0.00338286 -4.50196e-06 0.00516445 
380 1 75.1519 22.5508 7.01732 0.0159606 0.0108265 -0.00791256 
381 1 79.8392 21.9729 11.5476 -0.0173752 0.00408644 0.0213931 
371 1 78.4606 22.7093 11.1174 0.0291145 -0.0151785 -0.0209255 
300 1 70.7574 23.6727 11.3712 -0.0134269 0.00496979 0.00385641 
321 2 70.5081 23.7612 10.2841 -0.03972 -0.0255826 -0.0805153 
382 1 78.4791 24.2 10.8328 1.72601e-05 -0.00202255 0.00242182 
392 2 75.2183 24.467 8.11898 -0.0518991 0.0284564 -0.0717292 
396 2 77.3904 25.4177 9.45165 -0.0772136 0.0324769 0.118567 
384 1 77.5932 24.3394 9.68642 0.0180877 0.0242135 0.0175951 
317 2 73.8761 25.0427 10.4391 0.0239444 -0.0351753 -0.0437512 
305 1 74.2798 25.753 11.4216 0.0102457 -0.0129838 0.0174286 
164 1 78.8479 25.4372 11.8699 -0.00256968 0.0137774 -0.00370269 
98 2 62.6336 26.686 2.34038 0.0369962 0.0249015 0.00702382 
178 2 80.4731 24.5606 11.3171 -0.0817674 -0.054115 -0.011512 
302 1 73.0527 25.5804 12.0221 -0.0176866 -6.37961e-05 0.0144854 
386 2 75.3086 18.9838 14.2977 0.00999051 0.0325299 0.0221872 
311 1 67.9037 20.1816 15.73 0.000267652 0.0175977 -0.0106223 
312 1 67.799 18.9119 16.1292 0.00804905 0.0266592 -0.00205596 
324 2 67.9582 17.8664 16.5829 0.0743807 0.0772455 -0.0299913 
308 1 67.8313 21.4931 15.0765 -0.0164687 0.030775 0.0133229 
320 2 67.5121 21.2475 13.8276 -0.0284003 -0.00356986 -0.0218793 
307 1 70.1347 22.4671 16.1134 -0.0143052 -0.0167486 -0.0165569 
319 2 69.5627 21.8187 16.7088 -0.03471 -0.067007 -0.0271586 
298 1 68.8095 22.5914 15.1267 -0.00587816 0.0142393 0.000799617 
304 1 71.4525 22.7504 15.8887 0.0012979 0.0108566 -0.0119576 
292 1 69.1585 23.4782 14.0897 0.000817041 -0.00891298 -0.00417787 
296 1 71.4856 23.7961 14.7986 0.00919604 0.0156449 0.0153567 
290 1 70.3169 24.112 13.9504 0.0255177 -0.00965217 -0.0179478 
294 1 68.6154 23.1308 12.8045 -0.000764478 -0.00112586 0.00416803 
316 2 72.0798 22.4626 16.4943 0.00769286 0.0775964 0.0629237 
374 1 76.1281 19.4299 13.639 0.0210087 -0.0260223 0.008703 
377 1 77.3266 20.2532 14.0059 0.000141166 0.0198868 -0.014486 
369 1 78.1076 20.5819 12.6833 -0.00806997 0.0258887 0.00288705 
389 2 77.5319 20.617 14.9955 0.0455874 0.02446 0.0815942 
172 2 75.8337 23.4832 13.6352 -0.0577021 -0.0279435 0.0857528 
495 2 79.9873 21.0539 13.5225 0.0337605 -0.0764247 0.0308906 
378 1 79.4348 21.1754 12.6687 -0.0103294 -0.0060996 -0.0020603 
500 2 83.9605 34.5664 20.5315 -0.000676291 -0.0165556 -0.0281228 
151 1 81.0679 22.7898 18.3469 0.00609737 -0.00198914 -0.00904932 
169 2 78.3214 21.9354 16.5359 0.0857213 0.0797529 0.024794 
159 1 79.2278 22.4738 16.8904 0.000403877 -0.00250804 0.0196123 
171 2 78.8698 22.054 18.8416 -0.0470154 -0.00620913 -0.0250766 
157 1 79.754 22.3767 18.2005 7.47019e-05 0.010959 0.0209608 