ITEM: TIMESTEP
1000000
ITEM: NUMBER OF ATOMS
576
ITEM: BOX BOUNDS pp pp pp
-1.2000000000000000e+01 8.4000000000000000e+01
-1.2000000000000000e+01 3.6000000000000000e+01
-1.2000000000000000e+01 3.6000000000000000e+01
ITEM: ATOMS id type x y z vx vy vz 
218 1 3.9047 -10.0125 -7.11789 0.00714654 0.000161152 0.0335767 
235 1 3.11092 -8.52622 -8.90811 -0.0165578 0.00776894 0.00571289 
226 1 2.70403 -7.98574 -7.63822 0.00425381 0.00847811 -0.00291395 
220 1 3.08234 -8.90814 -6.73412 -0.0077484 -0.00214367 -0.00725018 
232 1 3.90719 -9.61956 -9.41283 -0.00723866 0.0231134 0.0207342 
224 1 4.38798 -10.3847 -8.37012 0.0181522 0.000336171 -0.00366035 
239 1 1.53931 -7.10008 -6.83335 -0.0122143 0.0309947 -0.0085046 
251 2 1.22587 -6.43571 -7.46953 -0.0323414 -0.0212949 -0.0178554 
247 2 2.96663 -7.89908 -9.69854 -0.000973613 -0.0973635 0.0788076 
244 2 3.88878 -9.46119 -10.4877 -0.0113094 -0.0010782 -0.102486 
231 1 5.82084 -10.9803 -8.50015 -0.0432949 0.00392118 -0.0192156 
223 1 5.89428 -11.0208 -6.03435 0.0195347 -0.0171656 -0.0245407 
243 2 6.00281 -11.3315 -9.65126 0.0554897 0.0335338 -0.0180781 
229 1 6.66895 -10.7868 -7.29866 -0.011983 0.02678 0.00289446 
241 2 7.73106 -11.0581 -7.17608 0.0288829 0.00621801 -0.0187133 
236 1 1.94521 -6.8937 -5.38273 0.019822 0.00808668 0.0355681 
252 2 0.550742 -6.96848 -3.19876 0.0795519 0.102131 -0.0501078 
222 1 2.95059 -8.82238 -4.97389 0.0253889 -0.0101912 -0.00312729 
228 1 1.86571 -8.17029 -4.50475 -0.00203731 0.000468421 -0.0343823 
240 1 1.13397 -7.896 -3.23427 0.00841888 0.00535694 -0.0112576 
357 2 0.742932 -9.07169 -1.53254 -0.00623402 -0.026214 0.0375508 
238 1 1.38569 -9.08097 -2.46986 0.0114027 -0.0181207 0.00399577 
249 2 2.95518 -10.8589 -0.839454 0.0719617 -0.0793927 0.100705 
237 1 3.5236 -10.6031 -1.82332 0.00501774 0.0135961 -0.00975342 
234 1 4.70001 -10.8768 -2.614 0.00423886 -0.00379437 0.00187052 
225 1 4.88963 -11.3404 -3.93017 -0.0135455 0.0192068 0.0119128 
219 1 3.97824 -10.5631 -4.79663 -0.00466906 0.00600571 -0.0136092 
217 1 4.79716 -10.382 -5.84984 -0.0078853 0.0161072 0.00660558 
221 1 3.37078 -9.74597 -3.978 -0.00752751 -0.0159308 -0.000303022 
227 1 2.71694 -9.75432 -2.67234 0.0221056 0.026976 0.0270502 
246 2 5.16851 -11.3712 -1.76147 0.0602377 -0.0242794 0.00243196 
230 1 6.17262 -11.5171 -4.70043 0.0110164 -2.34474e-05 0.00561564 
388 2 2.03516 -5.95606 -4.85584 -0.0106274 -0.00597072 0.0261437 
36 2 0.0178334 0.973902 -0.71369 0.103426 0.00946277 -0.0717049 
135 2 -5.43522 -5.12702 4.24674 -0.0695756 -0.124155 0.0239859 
282 2 -5.50624 -4.52456 4.49335 -0.0477993 0.0654594 0.018579 
22 1 -1.01891 -0.0415137 0.575766 -0.00811419 0.0183919 -0.0119866 
30 2 -3.32352 -0.229745 3.09014 -0.0220672 0.00478463 -0.0562607 
26 2 -2.22562 -1.40315 4.94741 -0.0154448 0.104259 0.0839631 
21 1 -2.27134 -0.303189 3.25249 -0.0121909 0.00779257 0.000891771 
18 1 -1.58933 -0.698019 4.45405 -0.000403505 0.0061144 0.00558542 
11 1 -1.44815 -0.28762 1.93302 -0.0211702 0.00144716 0.0141097 
9 1 -0.191134 -0.276424 4.06779 0.00580113 0.0101503 0.0132208 
23 1 2.41035 -0.715907 0.167922 -0.000491631 -0.0070445 -0.0154181 
32 2 4.72132 -0.26948 0.101222 0.0653831 -0.0570354 0.0862593 
20 1 3.78516 -0.354159 0.682492 -0.0208897 0.0341873 0.00243271 
6 1 1.09107 -0.148902 1.93433 -0.0153809 -0.0192687 -0.0134419 
10 1 3.57941 -0.212859 2.02719 -0.00123647 -0.00766598 -0.0167176 
15 1 0.805359 -3.30854 5.05364 -0.0256704 0.00496934 -0.0125841 
4 1 2.32137 -0.421234 2.73475 -0.00620899 -0.00641137 0.0253998 
3 1 1.15238 -0.703123 4.55551 0.0124566 0.03011 0.0105016 
13 1 1.32268 -2.08611 5.51155 0.0029578 0.0291918 0.0295172 
2 1 2.3602 -0.942095 4.09618 -0.0120399 0.00648629 0.0235423 
1 1 3.61097 -0.968959 4.69568 -0.00795001 0.0217257 -0.0207693 
16 1 4.85779 -0.540745 4.22524 0.00359617 -0.027302 -0.00263787 
19 1 5.08978 -0.402468 2.79194 -0.0112269 0.0140609 -0.0070962 
28 2 5.50534 -0.726302 5.33244 0.00836281 -0.040486 0.0626267 
34 2 -2.01563 0.0709597 0.0867301 -0.0716107 0.0594668 0.0414226 
5 1 -0.210558 0.0729338 2.55948 0.0487605 0.0153691 0.0286992 
24 1 0.167093 0.267934 0.0876677 -0.0155962 0.000913204 0.00806063 
12 1 1.54786 0.325508 0.716955 -0.0150078 0.0438829 0.0265585 
31 2 5.70097 0.182523 2.39603 0.0192737 -0.0155409 -0.0250115 
8 1 3.38507 -1.18423 6.14823 -0.0020165 0.0116214 0.00506792 
25 2 4.20248 -1.21271 6.74764 -0.0362196 -0.04147 0.0290414 
7 1 2.24801 -1.79336 6.59242 0.00475333 -0.0225749 0.000384331 
27 2 1.97311 -2.10585 7.6396 -0.0574531 0.0560275 0.0984221 
417 1 1.43225 2.972 9.38961 0.0205016 0.00261001 -0.0144959 
407 1 1.28359 4.07837 9.16548 0.0164206 0.000550688 -0.0179975 
429 2 1.86291 2.02482 9.90472 0.087913 -0.0212658 0.0593498 
405 1 1.94468 5.59914 7.30231 0.00377193 -0.00502578 0.00659045 
430 2 1.73312 4.81929 6.67516 0.0227791 0.0341846 -0.0352925 
136 2 3.94874 5.56277 6.70739 0.00162483 -0.0821463 0.0143292 
414 1 1.59787 5.3931 8.79285 -0.00323052 0.0239605 0.0103166 
399 1 2.4574 5.8253 10.0228 -0.00607858 0.00531183 -0.0181932 
400 1 3.58501 10.4309 8.9398 -0.00926152 0.00656116 -0.00135601 
401 1 2.60098 7.26409 9.74212 0.0166752 -0.00237223 0.0298358 
415 1 4.42304 11.4419 9.61746 0.0155413 -0.0284135 0.0243587 
250 2 4.55824 8.20594 7.40115 0.0478835 -0.0641159 0.023297 
420 1 3.21697 6.26208 7.03381 -0.00902838 0.00464618 -0.00160564 
402 1 2.73657 9.51081 8.59767 -0.00861713 -0.0014594 0.0178111 
418 1 3.49048 7.67738 7.23794 0.00719774 0.0137333 0.0019419 
426 2 1.8124 9.80393 8.20284 -0.0138813 0.00457147 0.14473 
408 1 3.0328 8.04828 8.68819 0.00126081 -0.00163391 0.00610844 
424 2 1.79869 11.341 11.5177 0.0130358 0.0285825 -0.0629945 
425 2 5.2337 11.1191 10.1145 0.0579518 0.0444597 -0.00219165 
570 2 -1.95563 11.2816 14.7689 -0.0201442 0.014483 -0.0224831 
385 2 -1.67148 10.973 14.3199 0.000533631 -0.037511 0.000376113 
574 2 3.08929 -6.71693 21.3529 0.0560853 0.127056 -0.0381771 
352 2 3.57224 -6.40508 22.0859 -0.00406405 -0.00344725 -0.159104 
242 2 7.66462 34.6985 -5.06535 0.0352146 -0.0148747 -0.0978159 
233 1 7.24409 35.3854 -4.14761 0.0016453 -0.0267207 0.0188979 
245 2 7.09645 35.3889 -2.97547 -0.0705755 0.0679918 -0.0661035 
423 2 3.63303 16.8374 11.4017 -0.0176041 -0.000457802 0.0330558 
17 1 5.06238 13.6872 10.5936 0.0246542 0.00411961 0.0117603 
411 1 2.70484 14.8482 11.322 0.0127202 -0.0150729 0.0147297 
398 1 3.99587 12.8737 10.2496 0.00681215 -0.00361822 0.0217093 
409 1 3.78278 15.7706 11.5499 -0.00885747 0.00103052 -0.00836108 
412 1 1.83679 12.5418 11.7221 0.0359536 0.0135442 0.00390793 
397 1 4.91732 15.3098 10.9969 -0.0221656 0.0212975 0.00233358 
404 1 2.57947 13.5061 10.981 -0.00626125 -0.00566918 0.00837205 
427 2 1.6452 15.0313 11.3765 0.0687591 -0.0892521 -0.0234097 
403 1 5.87604 16.0291 10.0458 0.0119309 0.0173505 0.0074349 
29 2 4.7879 17.4734 8.56593 0.0217678 0.0140516 0.0575936 
413 1 5.63097 16.7376 8.79786 -0.0214581 0.0203274 0.00430692 
14 1 7.46837 17.677 7.11356 -0.0156001 -0.0107755 0.00685195 
410 1 6.52596 17.5772 7.67834 -0.000371559 0.0194099 0.00761168 
501 2 -7.98666 23.6613 11.2875 -0.0332243 -0.0165582 0.0864422 
422 2 7.27667 18.6425 6.50533 -0.000462749 -0.123068 0.00700332 
500 2 -7.63055 25.621 11.4257 -0.0392054 -0.0163579 0.0779344 
491 1 -8.73765 25.3639 11.9802 -0.0369745 0.00238414 -0.00230649 
419 1 -1.16957 12.9121 13.9587 -0.0285082 0.00313946 0.00221206 
431 2 -1.98934 12.4468 13.6509 0.0360458 0.0947158 -0.0555045 
428 2 0.540714 13.7748 14.7937 0.0360325 -0.0238422 0.00990772 
416 1 0.214853 13.3793 13.8721 -1.05823e-05 -0.0307522 0.00247438 
406 1 0.748516 12.9714 12.7496 0.00697924 -0.0437439 0.0105238 
469 1 -9.81985 23.7184 15.9628 -0.0115751 0.00158187 -0.00125819 
477 1 -8.78492 23.2508 13.3468 -0.00448765 -0.0310624 -0.00297577 
488 1 -8.73125 23.9378 12.06 -0.00951605 -0.019371 0.0305532 
481 1 -10.7722 24.7292 16.6735 0.00982417 -0.016441 0.000950687 
471 1 -9.28998 24.0106 14.6315 0.00210488 0.000468491 0.00011395 
479 1 -9.69548 25.2599 14.4141 -0.00344602 -0.00902887 -0.00381423 
470 1 -10.2767 26.3065 15.0175 -0.0170094 -0.0237104 0.0042313 
472 1 -10.5147 27.4886 14.1705 0.00358961 0.00833346 -0.0207969 
474 1 -9.41818 26.1123 13.0184 -0.0108739 -0.00842916 -0.00376593 
490 1 -10.1059 27.5379 12.6268 0.0124985 0.0129141 -0.0222353 
314 2 -10.1442 29.8751 12.704 -0.0815102 -0.0337563 -0.0279813 
473 1 -9.91448 28.8769 12.2641 0.00246609 0.00210938 -0.0121455 
476 1 -11.4911 25.8995 16.1029 0.0137548 0.00468538 -0.00336892 
480 1 -8.36915 29.6053 12.2159 -0.0108238 -0.00297213 0.0210203 
478 1 -11.8842 27.8959 14.6879 0.00476512 -0.0115838 0.0153453 
492 1 -8.00825 30.5899 12.4397 0.0112347 -0.0110907 -0.00777463 
489 1 -7.39388 32.0087 12.5103 -0.00662254 0.00240963 -0.00572239 
486 1 -6.63346 32.6734 12.7654 0.00367519 -0.00241887 -0.0471018 
502 2 -5.77554 33.2447 12.611 -0.0290121 -0.00362229 0.02397 
532 2 5.03648 14.9844 23.2934 0.0335756 0.0637012 -0.0111521 
573 2 0.417393 15.6977 23.6693 0.0283833 0.0055845 -0.0965359 
564 1 4.28895 16.8859 23.8735 0.0373151 -0.00900202 -0.0203233 
421 2 4.82465 17.2078 22.7799 -0.0192518 -0.0711464 0.027299 
559 1 5.33523 19.3884 23.7102 -0.0299293 -0.00111011 -0.0069624 
556 1 3.88029 19.522 23.5324 -0.015956 -0.00365905 0.00689087 
571 2 5.96464 19.3647 22.9825 -0.0210579 0.0251 0.0720524 
568 2 3.47728 18.9597 22.552 -0.0278771 -0.0202537 -0.0585815 
567 2 1.56043 19.6773 23.525 -0.153841 -0.0929699 -0.0460916 
483 1 -10.9714 24.6545 18.2126 0.0222964 0.0153015 -0.0148574 
493 2 -10.4211 24.717 19.1306 -0.0381335 0.0335635 0.0528651 
174 2 -11.9972 25.2436 20.2697 0.0351071 -0.0352645 0.0586546 
558 1 -0.742374 16.9188 25.6787 -0.00548445 0.00809162 -0.00755293 
566 2 -2.59923 17.4481 26.0439 0.153798 -0.0303072 -0.0220832 
549 1 -1.57743 17.6106 26.5689 0.00944765 0.0125458 0.0330946 
572 2 5.48042 13.5119 27.7793 -0.0408578 -0.0268101 -0.0772477 
562 1 4.59784 15.5975 24.1915 0.000105449 0.0043831 -0.0213873 
576 2 4.52012 14.998 25.2453 -0.0335691 0.0955175 0.00826196 
561 1 0.142519 16.3236 24.8616 0.0192884 -0.00609363 -0.0071735 
563 1 4.47424 13.9206 27.7158 0.0136081 0.022255 -0.0343695 
177 2 3.82081 13.2508 27.3104 0.0710969 0.0147088 -0.00377061 
546 1 3.85298 16.8223 25.2611 -0.0153975 0.0102551 0.00689792 
551 1 1.49393 16.193 24.8886 0.0294545 0.00295555 -0.00266805 
545 1 2.46153 16.4396 25.6039 -0.0425959 -0.016363 0.0275468 
543 1 2.52453 17.1939 26.9522 -0.0141497 -0.00906484 -0.00469351 
560 1 3.72944 16.2251 27.4998 -0.0135023 -0.00786173 -0.00752573 
569 2 1.5235 16.6439 27.4345 0.0641734 -0.0514949 0.0732222 
552 1 3.98253 15.091 27.6866 -0.0247928 -0.00751976 0.00803751 
557 1 -1.38899 18.9127 27.4873 0.0276525 -0.0304549 0.0105324 
432 2 -1.76253 19.4287 28.2494 0.0313854 0.00315202 0.0373558 
554 1 -0.0386751 18.8544 27.1708 -0.0196315 -0.000442337 -0.0295798 
550 1 5.83428 18.7792 24.8986 -0.00711552 0.0128769 0.00155743 
544 1 4.45015 18.2427 25.6305 -0.00497734 -0.0173429 0.00583379 
565 2 0.440172 21.2858 25.8073 -0.0404889 0.0213292 -0.00556903 
553 1 0.982435 20.2137 25.7165 -0.00273404 -0.00302849 -0.00658802 
547 1 1.09632 19.0102 26.5835 0.0274239 0.0191912 0.000244692 
541 1 2.48405 18.6276 26.7195 -0.00769915 -0.0225949 0.0239422 
542 1 3.38444 19.1181 26.0248 0.00183279 0.00138448 0.00750324 
555 1 3.23796 19.8411 24.7367 -0.00261933 -0.00960227 -0.0055089 
548 1 1.79729 20.2209 24.5787 0.00147591 0.00435536 -0.005065 
466 2 18.7117 -6.3161 -11.3804 -0.0464116 0.0107752 0.0402438 
105 2 18.1504 -6.46772 -10.9321 0.0544736 -0.042782 0.0831221 
215 2 34.176 6.43983 5.81112 -0.0254625 -0.0947504 0.0149694 
202 1 33.4728 5.96354 9.41853 -0.0149893 -0.0143355 0.0139332 
287 2 21.3108 8.97588 8.47353 -0.130325 0.0123945 -0.0469266 
33 2 21.1895 9.20738 8.1092 0.0250993 -0.161882 -0.0632249 
200 1 35.1774 6.8713 6.29741 0.0180489 -0.00570233 0.0259948 
192 1 34.0398 6.43451 8.35267 -0.0181769 -0.00121661 0.0107964 
204 1 32.6968 6.11731 10.5726 0.0132242 -0.00299907 -0.0108058 
203 1 35.1726 7.02256 7.80345 0.0326089 -0.00590011 0.0158263 
212 2 31.636 6.15512 10.454 0.0349016 -0.0294744 -0.0785136 
99 2 29.4549 -2.09974 23.9868 -0.0510718 0.0631824 -0.0586514 
87 1 28.8966 -2.96953 23.6363 0.0119397 -0.0315636 -0.0111176 
494 2 29.8059 -4.58897 21.9775 0.0562337 0.0786426 -0.0508344 
475 1 29.7375 -4.0873 23.0839 0.00318905 -0.0265769 -0.0167806 
100 2 26.2597 -1.2048 22.8962 0.00173788 0.0463402 -0.0333579 
85 1 26.617 -2.23015 22.5391 0.0170831 -0.0321476 -0.0193458 
80 1 27.4815 -2.88362 22.7725 -0.00325093 0.010082 -0.0126367 
482 1 31.0159 -4.35283 23.3974 -0.0212331 -0.0163766 0.00296921 
108 2 32.9967 -5.06633 22.3274 0.0873241 0.00720009 0.0523336 
498 2 32.7453 -4.13508 23.9337 -0.0849837 0.0171211 0.0312748 
485 1 32.2957 -4.90355 23.2951 0.0360142 -0.00186601 -0.00170595 
504 2 19.8484 8.35369 26.0999 -0.0314303 -0.06463 -0.0539014 
71 2 19.7857 7.6388 25.5126 0.0431937 0.0943037 -0.0235394 
356 2 28.2797 21.2818 10.9022 0.00875601 -0.0245008 -0.055274 
344 1 28.6841 21.2921 11.7428 -0.0145159 -0.00697624 0.0117771 
332 1 32.8981 20.8662 11.5577 0.0127002 0.0124945 0.0027491 
334 1 30.1141 21.6502 11.859 -0.00462844 -0.00604032 -0.00398494 
343 1 31.044 22.4442 10.7416 0.0284715 0.0233853 0.00202116 
339 1 34.2359 20.5018 11.2628 0.0163125 -0.0112444 0.0164121 
340 1 32.1957 21.7057 10.4202 -0.00364208 -0.000701334 0.00253418 
351 2 34.8892 21.0134 10.5715 0.0622844 -0.0651742 -0.00180257 
176 2 13.2015 26.4675 9.76612 0.0807469 -0.0253064 0.102419 
248 2 13.8824 26.0558 10.0362 0.0325318 -0.0484411 0.00310789 
350 2 35.767 17.9563 14.1702 -0.0590291 0.115241 0.0111864 
336 1 28.9859 21.017 14.2351 -0.00296398 -0.0119901 -0.00252766 
358 2 28.2044 19.4987 17.4514 0.00585055 -0.0731842 0.032825 
348 1 28.3495 20.7107 15.4767 -0.0118239 -0.0447409 0.00165578 
347 1 28.1307 21.2831 13.0243 -0.00893613 -0.0132335 -0.0107476 
346 1 28.8759 19.8281 16.5111 -0.0217983 -0.0215775 -0.00586177 
359 2 27.0814 21.5689 13.2055 0.0507037 -0.0428861 -0.0255079 
360 2 27.3048 20.933 15.8863 -0.0100816 -0.00445051 -0.0973179 
330 1 30.3129 20.4378 13.9998 0.0223445 0.000581168 0.00656131 
328 1 30.9122 21.0159 12.7036 -0.0122147 0.00752725 0.0173602 
337 1 34.7056 19.9586 12.5461 0.00655717 0.0093785 -0.0272592 
326 1 32.2212 20.4171 12.637 0.013374 0.00717346 0.0197251 
342 1 32.3864 18.6816 17.267 -0.000163356 0.00434693 -0.00546945 
353 2 34.8938 18.4495 16.8242 -0.0296325 -0.0346614 -0.104874 
333 1 32.9434 19.3376 16.1159 -0.0120958 -0.0095111 -0.00749547 
341 1 34.2162 18.5901 15.8718 0.00528231 0.0105506 -0.0197655 
327 1 32.1628 19.7785 14.9492 -0.00247742 0.00503647 0.00167029 
338 1 34.8201 18.5881 14.649 0.00819083 -0.00810005 0.0141999 
325 1 32.6154 19.7332 13.6991 -0.0102275 -0.00391172 0.00466415 
331 1 34.1032 19.3943 13.5937 0.0218818 -0.00895214 -0.0117728 
349 2 35.7543 19.711 12.6129 -0.0332719 -0.0760407 -0.0726172 
329 1 30.901 20.0671 15.2066 0.016237 0.0118802 0.000766971 
345 1 30.9787 19.2538 17.8204 0.00435146 -0.0044772 0.0032722 
335 1 30.2183 19.4633 16.5673 -0.00261893 0.00618882 0.0177967 
354 2 32.9149 18.0377 17.8741 -0.125484 -0.0810719 -0.0426022 
318 2 16.7544 24.223 14.4708 -0.0866471 0.00124681 -0.148685 
68 2 18.779 22.0133 23.7524 0.0239214 0.00152394 -0.0258375 
216 2 30.7341 18.7836 18.7847 0.0106882 -0.0587091 0.0462681 
190 1 36.4317 7.54874 5.91244 -0.022161 -0.01041 0.0148604 
188 1 38.7198 9.12105 5.63156 -0.0126585 -0.000293773 0.000948 
211 2 38.5692 9.3309 3.43069 0.00931651 -0.035376 -0.0350059 
199 1 37.1368 7.75744 4.5783 -0.0128777 -0.00822101 0.0186017 
196 1 38.0852 8.86597 4.34184 -0.0107068 0.0116574 0.00436823 
195 1 39.8266 10.0715 5.78191 0.0164728 0.0376072 0.00507462 
207 2 39.9602 10.2068 4.56811 0.0388085 -0.0464028 -0.00800211 
450 1 57.1956 -11.6065 8.48011 1.46623e-05 -0.00917303 0.00229104 
462 2 56.7839 -10.6453 8.0955 0.11341 -0.0346367 -0.00975974 
208 2 41.5874 10.7831 6.61468 0.0290834 0.0751542 0.0436072 
213 2 36.2505 6.54032 11.0449 -0.0813185 -0.0393428 -0.0152789 
201 1 38.0712 6.92626 11.7202 0.0055113 -0.00587779 0.00612215 
184 1 37.3054 7.57291 7.02015 0.00922181 -0.0430167 -0.00980523 
191 1 37.232 7.01622 10.7265 0.00427762 3.18447e-05 -0.000545212 
198 1 39.1077 8.10495 11.5083 0.00160538 -0.00721252 -0.0157899 
197 1 41.2814 8.24358 9.92764 0.00666805 0.00121913 0.00535196 
194 1 41.565 9.01062 8.65911 0.0053258 0.00763173 0.00492247 
186 1 36.6356 7.28664 8.30478 0.0259379 -0.00061997 0.00910168 
182 1 38.6241 8.22162 6.90318 -0.0124863 -0.00194879 0.00502134 
187 1 40.4773 9.60284 7.87757 -0.0404265 -0.00271078 -0.0323579 
185 1 37.5415 7.42493 9.33007 0.00645678 0.00971349 -0.0230026 
183 1 38.752 8.22115 9.20209 0.00361157 0.00557205 0.00837107 
181 1 39.4681 8.57091 7.97755 0.00958557 -0.00769375 0.0336675 
193 1 40.8013 10.229 6.67656 0.010678 0.00637056 -0.0137719 
189 1 39.7761 8.21744 10.1594 -0.00467581 0.00524576 0.0123209 
209 2 42.0126 7.57174 10.4048 -0.0258091 -0.0492513 0.0608687 
206 2 42.6201 8.93821 8.95066 0.0323449 -0.0221262 -0.021638 
133 2 39.5274 8.70315 12.2964 0.00408036 0.0844545 -0.00418284 
214 2 37.7911 6.6752 12.8781 -0.0135552 0.0486405 -0.0958122 
497 2 53.5583 7.09194 32.4459 -0.0141263 0.020746 0.014351 
69 2 46.0724 18.2067 -11.3127 -0.0340138 0.0252635 -0.0619489 
47 1 44.3442 21.6375 -10.9319 0.00399942 0.00857111 0.0212168 
57 1 45.5855 20.9146 -11.1649 0.0248956 0.00441729 0.0158204 
66 2 46.0187 20.2367 -10.4377 0.0144997 0.00937417 -0.000276063 
54 1 45.3715 18.563 -11.9346 -0.0155827 0.00512768 -0.00477599 
503 2 53.4329 26.7909 -6.47733 -0.0141641 0.0662151 0.00893936 
459 2 56.0242 28.8686 1.24329 0.0400961 0.0363472 -0.0175167 
460 2 57.8477 28.816 1.25459 -0.046347 0.140448 -0.0112371 
448 1 58.4354 29.3736 2.20319 0.0227861 0.0103861 -0.00653127 
447 1 55.9347 29.8318 1.92177 0.0206789 -0.0268737 0.00178109 
451 1 59.9538 29.6033 2.36273 0.0313422 -0.00305931 0.00420565 
457 2 53.9933 30.391 2.14148 -0.0914819 -0.0007271 0.0497274 
458 2 53.2429 31.5032 4.47864 0.0424701 0.0325522 -0.0866921 
464 2 53.9014 33.1675 5.96082 -0.07961 -0.00648985 0.0308978 
70 2 55.7815 34.0578 3.62062 0.00439621 0.034544 -0.0592864 
446 1 54.2221 32.0465 4.64677 -0.00154464 -0.0149925 0.00472316 
445 1 54.9609 30.68 2.55697 -0.00980473 -0.0171647 -0.0167606 
439 1 55.3235 31.2527 3.94038 0.00155871 -0.0167461 -0.00374997 
440 1 57.1445 30.1944 2.44934 -0.00911985 0.00517538 0.00804208 
461 2 56.1032 34.6289 5.89919 -0.0489754 0.0779922 0.0203592 
436 1 58.9463 31.5259 3.49814 0.0282267 -0.00740647 -0.016255 
434 1 57.4764 31.1957 3.49627 0.00236197 -0.0172966 0.0311315 
433 1 56.5877 31.7359 4.38482 -0.0067352 -0.00390866 -0.022762 
438 1 59.1636 32.78 4.32938 0.00827374 -0.0184408 0.0195818 
435 1 56.992 32.8719 5.14253 0.00691865 -0.00714545 -0.0380487 
437 1 58.2037 33.5538 5.08494 0.00904742 0.0306564 -0.00508104 
454 1 58.75 34.7633 5.28874 0.000940993 -0.0142662 -0.0143081 
441 1 56.0346 33.504 5.90307 0.0083858 0.00771379 0.0162242 
449 1 54.7927 32.986 5.25992 -0.0110019 0.0166352 -0.00694269 
468 2 59.9374 35.9673 5.1904 0.0440318 0.0629203 0.024362 
443 1 57.9981 35.5778 6.23498 0.00587618 0.00252629 0.00532127 
465 2 56.2887 32.8807 6.98435 -0.00395671 0.0781646 -0.0597794 
453 1 58.1766 35.6322 7.74193 0.00827273 0.00424118 -0.0222558 
537 2 59.7857 17.6388 18.7072 0.0219182 -0.00598957 0.102434 
63 2 42.4977 22.2595 29.15 0.0680185 0.00604218 0.0691157 
539 2 44.1855 27.5763 25.9526 -0.0595629 0.0264584 -0.0734088 
179 2 44.6276 27.6734 25.3769 -0.0135173 0.0188029 0.116132 
72 2 42.851 16.6303 31.5665 0.0061769 -0.0590478 0.0472355 
48 1 43.6839 17.3689 34.5961 -0.0102765 -0.0173501 -0.0034009 
60 1 44.2852 17.9593 35.3895 0.0214583 -0.000186807 0.0221351 
59 1 43.4676 17.6676 31.9734 -0.00561808 -0.0125989 0.00670893 
56 1 43.6559 17.9793 33.2843 -0.00677359 -0.0138694 -0.00265075 
67 2 41.5008 18.7266 30.1364 -0.0641491 -0.0305152 0.0233815 
51 1 42.7404 21.9408 30.0481 -0.0177648 0.00821063 -0.0140363 
52 1 42.6335 20.616 30.1556 0.00962277 -0.00479493 -0.0157929 
55 1 42.6295 19.173 30.3646 -0.00834983 0.003727 -0.00798183 
44 1 43.8544 22.3393 30.9562 0.00689792 0.0104519 0.00988037 
46 1 43.4978 18.7166 31.2316 0.010285 -0.0131041 -0.000344755 
40 1 43.6707 19.9147 32.1075 0.0164814 -0.0112936 -0.0242304 
38 1 43.8422 21.4387 32.1051 0.00665823 -0.0093992 0.00265236 
42 1 44.0578 19.5079 33.3366 0.0232382 0.00783295 -0.00280605 
37 1 43.6473 22.3005 33.1814 -0.00785256 -0.00574884 0.00877214 
39 1 43.7554 21.6523 34.6187 -0.0178717 0.00110112 0.00503456 
41 1 44.1171 20.4133 34.7174 0.00519378 0.0164907 -0.0155273 
45 1 44.2888 22.5474 35.7629 -0.0114245 0.00112005 0.00937469 
49 1 43.5669 23.907 31.3383 0.00725254 0.00143358 0.0228136 
43 1 43.6925 23.7648 32.7676 -0.022938 0.0209983 0.0066745 
58 1 45.0118 20.0174 35.7788 -0.0322163 0.0110201 -0.00516319 
65 2 44.3285 23.5796 35.6961 0.0143531 0.00414974 -0.0892605 
62 2 43.5568 25.5156 35.9119 -0.0161506 -0.0632894 -0.0567043 
50 1 43.4163 24.8121 33.8844 0.00433537 0.00112939 -0.00411592 
61 2 42.7143 26.4598 34.6201 0.0396285 0.0807159 -0.00995013 
53 1 43.2241 25.5563 34.9026 0.0183301 -0.020315 0.00274142 
210 2 51.3183 34.0598 33.5791 0.0057328 0.0161383 0.0341075 
284 2 51.0839 34.6696 33.0431 -0.029512 -0.0884862 0.166712 
205 2 71.6334 -3.35042 -6.26553 -0.091242 0.0390275 0.00549675 
124 1 71.6786 -2.42724 -6.8681 0.014374 -0.00348386 0.0174087 
127 1 71.6082 -1.02027 -7.00313 0.00231825 0.00905798 -0.00537833 
118 1 71.854 -0.00366914 -7.74129 -0.00831903 0.0127412 -0.00290521 
139 2 74.5708 -5.57383 -8.8625 -0.0624655 -0.0369996 0.0254342 
121 1 74.065 -4.53964 -8.75748 -0.000791381 0.000571933 0.00199889 
123 1 73.2107 -4.10389 -7.80285 0.00651676 0.00652408 0.0217311 
496 2 73.6867 -4.309 -6.94913 0.0378305 0.0569714 -0.0144431 
115 1 74.6122 -3.35701 -9.49818 -0.00317945 -0.0287839 0.0165825 
116 1 72.8299 -2.71472 -7.72049 0.00245722 -0.0408391 0.0103752 
109 1 74.3655 -1.94918 -9.4621 -0.049735 -0.0090665 -0.0304555 
110 1 73.2571 -1.60752 -8.62537 0.00763929 0.038434 -0.0121737 
122 1 75.5537 -3.82615 -10.5492 0.013064 -0.0190737 -0.0167887 
111 1 75.3086 -1.3214 -10.4829 -0.0166678 0.0172338 -0.0191239 
112 1 72.9286 -0.231875 -8.6781 -0.0344231 0.00604389 -0.00543377 
125 1 76.4981 -3.21474 -11.3345 -0.00423567 0.0158437 0.0030288 
117 1 76.751 -1.86621 -10.5067 -0.0411873 0.00372256 -0.0332625 
126 1 77.9101 -1.02348 -10.1602 -0.0140918 0.0028743 -0.00446749 
138 2 78.8972 -1.30548 -10.6246 -0.0501174 -0.0308326 0.0591844 
140 2 70.9771 2.33973 -7.00087 -0.0196493 0.0835913 0.00441306 
128 1 71.6806 1.6929 -7.50117 -0.000962419 -0.00671869 0.00947646 
113 1 74.9411 0.1884 -10.4918 -0.01013 0.0193795 0.00373635 
131 1 72.7844 2.24256 -7.81413 -0.0420574 -0.0299259 0.00419717 
114 1 73.9552 0.776 -9.45523 -0.013783 -0.0187077 0.013298 
120 1 73.946 1.91461 -8.89347 -0.0431833 -0.0165069 0.00403187 
143 2 73.0596 3.44589 -7.66852 0.0800433 0.00290388 0.0459154 
132 1 74.982 2.80973 -9.21397 0.00225948 0.016128 0.00504161 
119 1 76.1518 1.00785 -10.6297 0.00541554 -0.0258553 -0.000159337 
130 1 76.0111 2.45109 -9.8839 -0.00270917 0.00849423 0.0120914 
142 2 76.517 3.49822 -9.95785 -0.0392564 0.0730884 0.0419953 
129 1 77.251 0.276317 -10.0282 0.0191537 0.0329426 -0.0180007 
141 2 78.1875 0.899973 -10.0378 0.0658479 -0.0501479 -0.0426342 
101 2 77.5106 -8.30817 -1.88704 0.0909751 0.0484298 0.0284071 
86 1 77.94 -7.49385 -2.44196 -0.0280929 0.028392 0.00873422 
79 1 78.7386 -6.39288 -1.76052 -0.0125306 0.0198392 0.0139853 
89 1 78.6311 -8.27258 -3.49011 0.0359363 0.013495 0.00184685 
93 1 81.2479 -10.7128 -2.31855 0.0247766 -0.0118395 0.0264581 
77 1 81.0327 -9.34608 -0.629156 0.0159332 0.00362202 0.0113042 
83 1 81.7368 -10.5587 -1.0777 -0.0191846 0.013662 -0.012806 
94 1 81.8242 -11.9248 -0.418133 -0.00669565 -0.0211403 0.0162257 
81 1 79.5964 -9.14623 -2.85276 0.00202244 -0.0137799 -0.025082 
90 1 80.2106 -10.2506 -3.32164 0.00909784 -0.00907045 -0.000130134 
75 1 80.2781 -8.44875 -1.50051 -0.00303677 -0.00901702 -0.0180333 
73 1 79.7536 -7.21769 -0.928534 0.0226088 -0.00692567 0.0181243 
97 2 78.7743 -5.232 -1.82038 0.00552373 0.015071 0.00458907 
137 2 63.6308 -10.1985 2.88238 -0.0360423 0.0578593 0.0246521 
78 1 80.6444 -9.70486 0.880149 -0.00618009 0.003156 0.0273882 
84 1 81.1236 -10.697 1.73333 -0.00236766 0.0128286 0.0022481 
355 2 79.6993 -6.52123 1.54173 -0.0779871 0.0260857 -0.0552606 
92 1 81.2474 -9.16321 3.73443 -0.00316652 -0.0102758 0.00519265 
82 1 80.4123 -8.12009 3.14174 -0.0112092 -0.0274486 -0.0141311 
76 1 80.0299 -8.51886 1.65804 -0.00638614 0.0014666 -0.0179059 
74 1 79.8017 -7.39484 0.713548 -0.00377633 0.012187 0.00313624 
91 1 80.1009 -6.86311 3.63241 -0.0203991 -0.0175724 -0.0193267 
96 1 81.6618 -11.9492 0.999576 -0.0228934 -0.00322182 -0.0283976 
95 1 81.378 -10.4363 3.25801 -0.00774639 -0.000145985 0.00841355 
104 2 81.5342 -9.04896 4.66457 0.0548548 -0.0171048 0.0687684 
107 2 81.5754 -11.2446 3.87547 -0.00380482 -0.00175052 -0.0241373 
88 1 79.8798 -5.68475 4.13893 -0.00113573 0.01168 -0.0047709 
103 2 79.7076 -5.06867 5.18882 0.0635064 0.0396039 0.105956 
263 1 77.382 -10.5651 17.2316 -0.0143623 0.0319463 -0.00829371 
258 1 77.8076 -8.2091 17.2725 0.0354651 0.00161181 -0.0220114 
256 1 77.2453 -6.98373 17.4425 -0.00104875 -0.0144739 0.0176932 
273 1 76.6481 -11.5693 17.9935 0.0128273 0.012059 -0.000480166 
274 1 78.6175 -10.8188 16.6187 -0.0154054 0.000606602 -0.015891 
276 1 79.1758 -9.55787 16.0149 0.0159462 0.00688987 0.0079256 
288 2 79.5945 -10.0941 15.1749 -0.0427384 -0.0205223 0.0457668 
264 1 78.6743 -8.30545 16.1246 -0.00147758 -0.0135478 -0.0414423 
275 1 79.6351 -7.23789 15.3232 0.00965498 -0.00280796 -0.00235233 
262 1 78.24 -6.00423 17.0971 0.00809666 -0.0133426 -0.0287027 
286 2 79.1699 -11.9518 16.6211 0.00561851 0.0237382 0.00930517 
271 1 77.9884 -4.79211 17.6748 -0.00998934 0.010021 0.00323741 
272 1 79.5603 -5.98997 15.9729 -0.0148618 0.0226761 -0.0306345 
257 1 77.2505 -9.30398 18.0582 -0.00508934 0.00753747 -0.0138123 
261 1 74.9702 -10.2303 18.8159 0.00965588 -0.00985438 0.00343317 
269 1 73.892 -9.83605 19.6989 -0.0270806 -0.00409525 -0.00223548 
277 2 73.9321 -6.11137 21.4362 0.0246476 -0.0199453 -0.10056 
266 1 73.3533 -8.57321 19.935 -0.00173609 0.0222028 0.0243703 
265 1 74.3945 -6.29376 20.5753 -0.021238 0.0371801 0.00607209 
259 1 74.4835 -7.69699 19.8932 -0.0211547 -0.00927924 0.00832459 
253 1 75.7295 -7.80409 19.1208 -0.00222108 0.0064517 -0.000202037 
255 1 75.9687 -9.12088 18.591 0.0185948 0.00344642 -0.0167179 
254 1 76.2796 -6.52493 18.52 -0.00575866 0.00866572 0.0253748 
281 2 72.5607 -8.57439 20.658 0.0455562 0.0393331 0.061131 
270 1 75.6012 -11.5875 19.0074 0.0230917 0.00274503 0.00653884 
267 1 75.3963 -5.42007 20.624 0.00505315 -0.00388697 0.0212087 
260 1 76.5313 -5.54813 19.3731 0.00672516 0.0147029 -0.00984335 
268 1 77.2951 -4.40634 18.7503 -0.00112215 -0.0187642 -0.0243816 
279 2 74.6013 -4.69099 21.2713 0.0243998 0.0958624 -0.0360714 
280 2 77.3728 -3.36622 19.1311 0.0801325 0.0949964 -0.00268024 
98 2 65.4152 11.0767 29.3411 0.0256683 0.029151 0.0153627 
134 2 76.9445 -3.04778 35.6343 0.0216513 -0.0767002 0.0451702 
170 2 74.4964 24.9226 -5.11588 0.122149 -0.0943279 0.00850081 
64 2 74.0493 24.3203 -5.58669 0.00999021 -0.0572525 0.0379877 
102 2 81.8636 35.1839 -1.09722 -0.0105605 0.00402715 0.0346799 
387 2 81.2775 17.6485 5.11699 -0.0581071 0.0416889 -0.049481 
144 2 76.3658 18.0631 5.31083 0.0180608 0.0687494 0.040977 
394 2 76.5879 18.2268 4.37821 -0.0539294 -0.089791 0.015453 
395 2 77.6033 23.2783 4.63404 0.00405867 0.0223608 -0.113754 
391 2 78.4335 21.7331 3.15701 -0.0295843 0.0158755 -0.0352819 
379 1 78.8218 21.676 4.19658 -0.0276431 0.00746677 0.0022362 
376 1 79.7806 20.7254 4.51923 0.0203869 0.00985658 0.0259206 
375 1 80.9922 18.551 5.84269 0.0259233 0.0020437 0.0120731 
368 1 80.479 19.9701 5.59978 -0.00421344 0.0290463 0.00459159 
380 1 78.1136 23.5021 5.71307 -0.00290836 0.0249395 -0.00615996 
370 1 78.8608 22.3549 5.42059 0.00922822 -0.00452349 0.0148049 
463 2 60.5435 29.3198 1.49265 -0.0604285 0.0112982 -0.0232829 
455 1 60.8708 33.5325 2.54734 -0.0142594 -0.0136508 0.0197406 
467 2 61.3588 31.8828 1.25512 -0.00513965 -0.0361462 -0.0280237 
452 1 60.6584 32.1965 2.00001 0.00248032 0.00516519 -0.00459193 
442 1 60.0433 30.9924 2.81252 -0.00318277 -0.00158963 0.00359999 
444 1 60.0965 33.9201 3.73678 0.0168263 0.00625661 -0.0139355 
456 1 60.0265 34.9895 4.65771 -0.01378 0.0107506 -0.0182287 
106 2 82.052 35.4448 1.79557 -0.0468414 -0.00622498 -0.0920095 
374 1 81.2722 17.9859 9.34357 0.0243366 0.00302756 0.0144925 
386 2 81.4066 16.9088 9.21816 0.000803274 -0.0315962 -0.0257462 
378 1 82.1693 21.0638 11.3163 -0.0100491 0.0116651 0.0153054 
377 1 81.4651 18.6871 10.5535 0.00336846 0.00280216 -0.00280043 
366 1 79.8311 22.7303 8.03682 0.0228308 -0.0111913 0.0275904 
364 1 79.6223 22.1714 6.92662 0.00078192 -0.00137697 0.0216799 
373 1 80.8616 18.4218 7.10189 -0.029785 0.0073102 0.00204233 
367 1 80.7209 18.7607 8.34993 -0.026302 0.00545542 0.0204913 
362 1 79.8739 20.7996 6.80342 -0.0020792 -0.0010695 0.00636737 
361 1 80.685 20.359 7.94412 -0.0235655 -0.00215808 -0.0185523 
365 1 80.4193 22.2829 9.15088 -0.0179068 0.0141451 -0.0105329 
369 1 81.4683 20.1997 10.2419 0.0127205 -0.0213058 0.00114475 
363 1 81.0985 21.0419 8.92291 -0.0158241 0.0124296 -0.0152726 
371 1 80.5131 22.8678 10.259 -0.0155155 0.00518149 -0.0201421 
381 1 81.5845 22.3559 11.264 0.0291768 -0.00789719 -0.00174773 
389 2 82.1543 18.4261 11.3114 -0.0097214 0.0803329 0.0811642 
392 2 77.6511 25.2069 7.05132 -0.0787698 -0.0968628 0.0508335 
383 1 78.2495 24.3648 6.82393 0.035302 -0.00850764 -0.0219542 
372 1 79.2452 24.1166 7.88545 0.00811603 0.00373416 0.0064534 
384 1 79.3962 24.9389 9.02068 0.00523011 0.0240943 0.0272463 
382 1 79.9158 24.2546 10.3049 0.00676426 0.00106371 -0.0143902 
396 2 78.9219 25.9263 9.04681 0.085138 -0.036171 0.00894277 