ITEM: TIMESTEP
700000
ITEM: NUMBER OF ATOMS
576
ITEM: BOX BOUNDS pp pp pp
-1.2000000000000000e+01 8.4000000000000000e+01
-1.2000000000000000e+01 3.6000000000000000e+01
-1.2000000000000000e+01 3.6000000000000000e+01
ITEM: ATOMS id type x y z vx vy vz 
100 2 -10.0418 0.330994 -2.45446 0.0124482 0.0690384 -0.0278642 
87 1 -8.05493 0.857139 -3.88048 0.0334574 -0.00308526 0.0261473 
85 1 -7.88758 1.35284 -2.33804 -0.0153224 0.00481503 0.00792381 
80 1 -9.18948 1.07875 -2.80388 -0.00667769 -0.0325573 0.00482137 
99 2 -7.6083 1.47996 -1.27182 -0.0145028 -0.0598703 -0.0366512 
570 2 10.8575 -3.87125 7.58175 0.00600842 0.0954278 0.0125731 
573 2 10.8238 -2.95907 5.28194 -0.0724798 0.0230044 -0.0274824 
561 1 11.4296 -3.74948 5.55678 0.0117652 -0.00398482 0.00902786 
558 1 11.0951 -4.34245 6.77069 -0.00835843 0.0199169 0.012762 
265 1 11.6095 11.1465 -2.00992 -0.00713212 0.0281779 0.00696916 
277 2 10.8991 10.9336 -1.24445 -0.0932599 0.0196803 0.0461785 
554 1 11.993 -5.98163 8.61083 -0.00666018 0.00812297 -0.000812079 
549 1 11.8021 -5.57535 7.05692 -0.0105816 -0.0166448 -0.00878903 
279 2 12.0798 9.36835 -1.0564 0.0609519 -0.0851614 -0.0243979 
314 2 -11.5609 -8.6523 26.0817 0.0201176 0.0688573 0.0118137 
315 2 -12.1979 -6.9702 29.8018 -0.0466843 -0.0069672 -0.0255002 
281 2 10.5894 15.3158 -4.0805 0.042952 -0.0573046 -0.000277255 
266 1 11.3529 13.561 -3.11488 -0.0100096 -0.00838895 0.00553862 
269 1 11.6071 14.7748 -3.67817 -0.00619192 0.0165876 -0.00779221 
417 1 -1.8232 22.9144 17.2043 0.0180291 -0.00886179 -0.000416607 
354 2 5.92688 23.0087 16.0187 0.0510501 0.0864179 0.00150962 
342 1 5.38583 22.7297 16.8767 0.0122985 -0.0125516 0.0137692 
345 1 4.27181 23.5019 17.322 -0.0203207 0.00772329 0.0103224 
432 2 4.11151 21.4282 18.1615 -0.00237775 -0.0234521 -0.0158638 
353 2 6.59846 20.119 16.9812 0.0372606 0.0870537 -0.0547779 
429 2 -2.36261 23.175 16.0789 0.0232587 -0.028695 -0.0272009 
216 2 3.62448 23.8913 16.5902 -0.0053597 0.0337494 -0.0965047 
426 2 1.32877 21.7133 20.3303 0.0117272 0.0960061 -0.112811 
29 2 -5.29116 23.3081 26.6793 -0.0292651 -0.00935976 -0.0726875 
399 1 -0.3514 22.1793 19 -0.0204397 0.00197938 -0.00188518 
17 1 -4.09355 24.0217 24.6271 0.026933 0.0235609 0.00745008 
401 1 -1.03917 22.5693 20.215 -0.00896171 -0.0390294 0.00684055 
407 1 -0.957477 22.6994 17.816 -0.0340794 -0.000985765 0.00594715 
414 1 2.17405 21.6097 18.5346 -0.00480369 -0.00723372 0.0315722 
405 1 1.11402 21.795 19.1654 -0.0178106 -0.0105328 -0.0258972 
430 2 3.12974 20.2814 22.2776 -0.0096907 0.00182535 0.0235723 
418 1 3.49381 20.9881 20.3197 -0.00256524 -0.0315919 0.00619924 
408 1 3.24368 21.0928 18.7395 -0.0134182 0.0146236 0.0148429 
136 2 4.72345 21.1016 21.9322 0.0203349 -0.0212364 0.130328 
420 1 3.78795 20.7582 21.4752 -0.0293591 0.0145116 0.00163427 
333 1 6.45109 21.9332 17.7199 0.00606378 -0.0218265 -0.0224379 
351 2 9.71134 20.5574 23.0381 -0.0408772 0.0106522 -0.0489444 
350 2 8.40874 19.3782 18.1583 0.0203677 0.0256765 -0.0163326 
338 1 7.88731 20.29 18.6151 0.040916 0.0164727 0.00987566 
341 1 7.05951 20.7239 17.5772 0.00718312 0.0160193 -0.0419187 
337 1 8.87517 20.4364 20.937 -0.00222879 -0.0202829 -0.00158371 
331 1 8.30363 20.9765 19.6584 0.00643773 -0.0132508 0.00658717 
349 2 8.70209 19.428 20.6392 0.0594043 0.0549105 0.00245476 
325 1 7.83372 22.1692 19.8869 0.0032072 0.0180912 -0.0110899 
339 1 9.47167 20.9998 22.0496 -0.000169253 -0.00236841 -0.0125565 
327 1 7.14959 22.9074 18.7647 0.00399846 -0.00446625 0.0174414 
332 1 8.81061 22.3296 22.144 -0.00994645 -0.0159508 0.00738229 
326 1 7.83957 22.8757 21.1337 -0.00682927 -0.00847666 0.0171002 
340 1 8.51459 23.3812 23.0421 -0.015819 0.00939188 0.0190581 
423 2 -6.61718 26.2908 21.7381 -0.0248687 0.0731037 -0.0567333 
409 1 -5.61401 26.0873 22.2983 -0.0151692 0.0120591 -0.0163696 
402 1 -1.48915 23.1264 21.1392 -0.00594077 -0.0279211 0.00122743 
397 1 -4.2295 24.7465 23.468 0.000714964 0.0127359 -0.0152982 
400 1 -1.76998 24.2213 22.3905 0.0245012 -0.0102883 -0.0245007 
398 1 -3.20973 24.8674 22.3739 -0.00331234 -0.00590222 -0.0144886 
412 1 -2.15962 26.2996 20.7886 0.00650021 -0.0255474 -0.0103098 
415 1 -0.976286 25.4105 21.3511 -0.0281411 -0.00655354 -0.00636827 
406 1 0.151821 24.8966 20.7236 -0.00110357 -0.0029804 -0.0242317 
403 1 -5.4331 25.7255 23.6834 0.00601905 0.0068167 -0.00881749 
427 2 -5.21042 27.3803 20.7769 0.154864 -0.0195157 0.0510367 
411 1 -4.66393 26.6314 21.4031 0.0177805 -0.00120838 -0.014847 
424 2 -2.35801 26.7694 19.6724 -0.0100338 -0.0916176 0.0801103 
404 1 -3.35328 26.3915 21.6997 0.00120628 -0.0265077 -0.00750949 
358 2 3.28748 25.9161 18.135 -0.0802814 0.014191 0.0249241 
346 1 4.12803 25.4029 18.8266 0.012418 -0.00355612 0.00153682 
335 1 4.96182 24.378 18.3593 0.0127497 0.0112639 -0.0198795 
348 1 4.41815 26.1598 19.9933 0.00677323 -0.0200595 6.25763e-05 
360 2 3.86242 26.9676 20.3536 0.0165166 -0.0546266 -0.101543 
431 2 2.69958 23.3489 19.7319 0.05082 -0.0362881 -0.00198774 
329 1 6.30586 23.9905 19.0329 -0.00637971 0.0144081 0.00388219 
416 1 0.953439 24.3068 20.093 -0.00717023 -0.0209979 0.00177041 
419 1 2.19676 24.0994 20.3929 0.00236774 0.00105372 -0.0144229 
428 2 2.79088 24.1588 21.3615 -0.0103828 0.0460858 0.0253454 
359 2 5.27308 27.5978 22.1286 0.0211174 -0.0118008 0.0264399 
336 1 5.48547 25.8091 20.9259 -0.00750018 0.00182898 -0.00273294 
330 1 6.2725 24.5228 20.4361 -0.00261347 0.00462683 -0.0126984 
347 1 5.99847 26.8192 21.9731 -0.0052829 -0.0222771 0.0146516 
344 1 7.21626 26.7317 22.5622 -0.0195202 -0.0104557 0.0240766 
334 1 7.53079 25.2835 22.5171 0.00906631 0.0107065 0.0136604 
328 1 7.23923 24.227 21.3664 0.0112913 -0.000479197 -0.025437 
356 2 7.29455 27.3024 23.3921 0.0421148 0.02385 0.000225252 
343 1 8.24426 24.7342 23.367 -0.0207057 -0.00966254 0.00137027 
33 2 7.36655 21.5377 35.8818 0.0134345 0.0399368 0.0757143 
282 2 -4.92564 25.4998 27.8293 0.0766042 -0.0352155 0.0926552 
135 2 -4.20545 24.8926 27.7709 -0.00917536 0.00633826 -0.0291366 
14 1 -4.54479 23.4489 25.7528 -0.00485255 0.0146491 0.0200671 
422 2 -7.5203 27.7298 25.8023 0.0039355 0.0510023 -0.0403446 
413 1 -6.93126 27.5901 24.734 0.011677 0.0186247 -0.027034 
425 2 -7.25685 28.3726 24.072 0.0226213 0.0273253 0.002477 
410 1 -6.15396 26.6508 24.4452 0.0192732 0.00183214 -0.00639131 
575 2 -5.9017 32.733 26.8237 0.0309309 -0.0543064 0.00690416 
283 2 1.47708 34.9028 27.5232 -0.110356 -0.0218306 -0.0688582 
278 2 0.729186 34.4297 27.3858 -0.0515708 -0.0478473 -0.0254278 
221 1 28.1265 -9.52546 -5.91168 0.00702684 -0.0265253 -0.000234075 
228 1 26.1178 -9.37694 -7.42052 -0.010472 0.010474 0.0271198 
240 1 25.2991 -8.6824 -6.26309 0.0259789 0.0153266 -0.0056503 
222 1 27.5368 -9.7704 -7.09599 -0.0103414 0.00174449 0.0187919 
252 2 24.4336 -9.11102 -6.56143 -0.0855869 0.0269797 0.0564326 
236 1 25.7167 -10.0494 -8.75975 -0.00404421 0.0183629 0.00605553 
239 1 26.762 -10.2588 -9.787 0.00870424 0.00301353 -0.00155925 
220 1 28.4896 -9.76928 -8.16937 0.023884 0.024924 0.0184841 
226 1 28.0739 -10.2284 -9.43406 0.00531913 -0.0190385 -0.00243807 
251 2 26.0495 -10.4394 -10.6903 -0.115499 0.00269657 -0.129258 
235 1 29.0039 -10.4402 -10.5895 -0.0235353 0.00733777 0.0105001 
247 2 28.7821 -9.78732 -11.3865 0.0119813 -0.0291853 0.0205265 
224 1 30.6183 -10.7289 -9.19364 0.00708617 0.0150444 -0.00363812 
218 1 29.8479 -10.0495 -7.96749 0.00182756 -0.0342089 -0.012375 
217 1 30.0164 -10.5813 -6.73663 -0.0103369 0.0181051 -0.0153684 
232 1 30.2961 -10.9796 -10.5105 -0.0348435 0.0131924 -0.00646413 
223 1 31.1231 -11.44 -6.43965 -0.00735269 0.00135573 0.00158298 
569 2 13.9011 -5.67632 8.37612 0.0342608 0.0190289 0.0175594 
394 2 14.9722 10.341 -10.7727 -0.0455261 -0.0273986 0.0886457 
144 2 15.0093 10.1268 -11.1936 0.0187325 0.0762146 -0.081929 
238 1 25.8271 -8.42475 -5.03512 -0.0194566 0.00525143 0.00501625 
227 1 27.3349 -8.5672 -4.75935 0.00477216 0.0115382 0.00643068 
357 2 25.2698 -8.21559 -4.03375 0.0270804 0.0450344 0.0530193 
237 1 28.1537 -8.60176 -3.3469 -0.0162207 0.00996167 0.0189768 
249 2 27.932 -8.1301 -2.33423 -0.0453509 0.0292997 0.00135937 
225 1 30.0465 -9.7986 -4.11587 0.00774615 0.00717627 -0.00797186 
234 1 29.6051 -8.49477 -3.60237 0.00261494 -0.00532953 -0.0259981 
219 1 29.3052 -10.231 -5.50659 -0.0127751 -0.000552809 0.0139967 
246 2 29.7784 -7.71165 -2.71531 0.0743176 -0.0169184 -0.049806 
233 1 31.5251 -10.2992 -4.3495 0.00220705 0.0149649 -0.0261974 
245 2 32.1354 -9.72354 -3.59269 -0.0682253 -0.0579414 0.0525681 
230 1 31.6222 -11.5044 -5.12164 0.0109469 -0.000509113 -0.00765869 
465 2 34.9955 -8.51091 -2.60772 -0.034921 -0.00450373 -0.0359101 
443 1 35.0532 -9.52534 -2.03618 -0.000697526 -0.00797498 -0.0139662 
244 2 30.8884 -11.4859 -11.1678 0.0204217 0.0463681 -0.0206163 
229 1 32.1514 -11.4036 -7.51142 -0.0324468 -0.0095558 -0.00142023 
267 1 12.592 10.1518 -1.49536 0.0117474 0.00267429 0.0110791 
231 1 31.9524 -11.4846 -8.85195 0.004736 0.0184102 0.00408467 
543 1 12.3799 -6.23907 5.96915 0.00287349 -0.00713701 -0.00625902 
254 1 14.3413 11.6202 -2.8782 -0.0271671 0.0180465 0.00516455 
260 1 13.8837 10.6408 -1.92058 -0.0280314 0.030616 0.00961825 
256 1 15.68 11.6042 -3.01709 0.0164811 -0.0162525 -0.0122913 
280 2 14.4168 9.09393 -0.962455 -0.000179541 -0.0221176 -0.0461453 
268 1 15.0187 9.86268 -1.01137 0.0031758 0.00084463 0.00423002 
271 1 16.3544 10.2216 -1.4954 0.00892183 -0.00821855 -0.00351021 
262 1 16.8202 11.0963 -2.63171 -0.000401246 0.011454 -0.00601672 
287 2 18.7199 10.3767 -3.4526 -0.0792498 -0.0147746 -0.0395794 
272 1 18.0089 11.1187 -3.38562 0.0026766 -0.00175704 0.00323049 
553 1 15.0491 -7.61236 8.38349 -0.00611926 -0.0116461 -0.0117506 
177 2 17.6615 -11.2127 2.06726 0.00866852 0.0775307 -0.171281 
563 1 17.7698 -10.6237 1.20525 -0.00898783 0.0141106 0.011887 
544 1 14.6656 -7.46426 4.0625 -0.0132797 -0.00104073 -0.0268252 
560 1 16.1081 -8.77426 1.96493 0.00114933 0.0189609 -0.0117113 
552 1 16.9434 -9.60437 1.36436 0.0384993 -0.0105049 -0.00349685 
550 1 15.8375 -7.90898 3.1727 -0.0232544 -0.0161329 -0.00134039 
559 1 17.1593 -7.72463 3.74625 0.00221764 -0.0138387 -0.00834402 
542 1 14.8 -7.14668 5.44564 0.00675896 -0.0111774 -0.0152031 
556 1 17.335 -7.26213 5.08339 0.010832 0.0220518 0.000439703 
572 2 18.948 -10.7457 0.541825 -0.0768507 -0.0711774 -0.0988224 
568 2 18.3794 -7.61056 5.41196 -0.0775359 -0.0110054 -0.0834298 
571 2 18.0154 -7.96066 2.90723 0.023549 -0.064521 -0.0277587 
450 1 34.1194 -9.75906 0.689459 0.00471803 -0.000220574 -0.0211877 
462 2 33.9165 -10.3764 1.62782 0.0607585 0.0337046 0.0731369 
453 1 34.5483 -9.7454 -0.650825 -0.00142292 -0.0206224 0.00247618 
576 2 13.2915 -1.44647 4.8277 0.011526 -0.0578078 0.110873 
546 1 13.6981 -6.37655 3.6041 -0.0148482 0.0106256 -0.0117471 
421 2 14.6168 -3.76623 3.6301 0.0984369 0.000620951 0.018176 
562 1 13.3811 -3.66939 3.91262 0.00680966 -0.00760639 0.00259942 
545 1 12.5204 -5.90036 4.33646 0.00691 -0.00938849 -0.00274225 
551 1 12.3137 -4.47574 4.60826 -0.0288961 -0.0018015 0.0306724 
564 1 13.5966 -2.32666 4.23607 -0.00193275 -0.0112163 0.0134915 
547 1 14.2481 -6.64264 7.82798 -0.00519858 0.00505656 0.00647662 
548 1 16.1622 -7.82213 7.47753 -0.00162933 0.032452 0.0148212 
541 1 13.7594 -6.57987 6.46271 0.0127785 0.00161561 -0.00910839 
567 2 16.9138 -8.52295 8.25023 0.0296253 0.00711467 0.0373132 
555 1 16.1508 -7.48673 6.00643 0.0417139 -0.0206694 0.0134903 
565 2 15.0062 -7.80262 9.3777 -0.0547193 -0.0792817 0.0173885 
243 2 32.7641 -11.3803 -9.47959 0.0241935 0.0246537 0.0294455 
241 2 33.3676 -11.5614 -7.17766 -0.017963 0.0366518 0.0140234 
557 1 12.1836 -6.36314 9.79933 0.00892449 -0.00412556 0.0113283 
566 2 13.2354 -6.53 9.66894 -0.00459903 -0.0509628 0.00788249 
464 2 33.4836 7.80471 21.7109 0.0788811 0.0342729 0.0255528 
64 2 32.8526 7.50226 20.9053 0.15024 0.021445 0.110466 
539 2 20.6202 -9.99206 17.8865 0.100849 0.0634519 -0.00234245 
179 2 21.3068 -10.0199 17.9534 -0.00541766 -0.00386445 0.0255432 
449 1 35.4886 34.2264 -0.120498 0.0246332 0.00848867 -0.00629801 
284 2 28.4778 35.1532 -10.9337 0.0851739 0.0359206 0.115911 
275 1 18.3352 12.197 -3.95305 0.00669072 0.0104878 0.00620224 
461 2 34.7241 33.5137 -0.383646 -0.0601726 -0.08957 -0.0791877 
210 2 27.8914 35.2455 -11.3294 0.06605 -0.0125629 -0.0835537 
253 1 13.4736 12.7869 -2.65186 -0.00597115 -0.00518664 -0.00053098 
261 1 13.1418 14.9328 -3.63822 -0.0143508 -0.0202592 0.0169811 
270 1 13.4485 15.4136 -5.02762 0.00203207 0.00592309 -0.00850952 
274 1 17.2481 15.4242 -5.08506 -0.0157697 -0.0200672 -0.000785217 
263 1 15.9463 15.1827 -4.45741 0.00316109 0.0230297 -0.00346544 
273 1 14.7813 15.9494 -5.19058 -0.00413879 -0.00420634 -0.0251732 
285 2 12.8815 16.2553 -5.51921 0.0126268 -0.0377656 -0.0459905 
286 2 17.3375 15.1104 -6.10137 0.0655628 -0.073905 -0.0206456 
257 1 15.4956 14.2267 -3.55946 0.00420255 0.016161 0.000231507 
258 1 16.2185 13.0092 -3.45781 -0.0115136 -0.00715916 -0.00410087 
255 1 13.9843 13.8477 -3.33096 -0.00244838 0.0259279 -0.00218149 
264 1 17.62 13.2803 -3.73775 0.0121291 -0.013795 0.00687361 
288 2 19.2282 14.2547 -4.80565 0.0159587 -0.0130118 0.0613541 
276 1 18.2613 14.6298 -4.40713 -0.00900975 -0.00756689 0.00560061 
248 2 26.8011 17.5021 -4.76346 0.0223755 0.0359622 0.0041169 
176 2 26.9553 17.928 -4.07339 0.0487684 -0.0685118 -0.0073964 
441 1 36.0782 35.0368 -1.42093 0.0121293 -0.0115368 -0.0374634 
242 2 32.5731 36.0722 -5.46293 0.00690859 0.0537802 0.0709715 
259 1 12.1051 12.4653 -2.53258 -0.0104315 0.026135 -0.00400452 
466 2 21.8482 26.8111 31.5617 0.0446475 -0.112597 0.053229 
105 2 22.6437 26.5181 30.8917 -0.0762642 -0.0395619 -0.143319 
507 1 59.0848 10.4395 -6.69694 0.0154397 -0.0140665 0.000184121 
505 1 58.4264 9.5103 -5.79154 -0.0189386 -0.00827718 -0.00142462 
511 1 57.7991 8.10091 -6.19575 -0.0121333 0.0147552 0.0218533 
517 1 57.222 7.11517 -5.44651 0.0236976 0.00184954 0.0239956 
529 2 57.0494 6.1587 -5.99773 0.0680292 -0.0166397 0.0218921 
513 1 60.0062 9.31778 -8.45695 0.00373712 0.00517311 -0.00626698 
518 1 57.9837 7.68121 -7.70498 0.00281066 0.0475196 0.0165163 
521 1 58.8363 8.41551 -8.71558 -0.0162859 0.00934269 0.00707001 
522 1 58.9668 10.4594 -8.14096 0.00531965 -0.0130545 0.0167059 
530 2 56.9575 7.34743 -8.17565 0.00560668 0.0677737 -0.0336828 
509 1 58.4961 11.701 -6.47316 0.00729848 0.00771479 0.0224241 
444 1 38.8426 -8.9806 -0.952221 -0.0071435 0.0142428 0.0149336 
467 2 39.106 -7.41672 1.00345 -0.0104023 -0.0117534 -0.0602151 
468 2 37.4804 -7.75947 -2.37215 0.0215812 0.0866555 -0.0163377 
454 1 36.4949 -9.88202 -1.89428 0.0200873 0.0162087 -0.0060958 
438 1 38.6018 -10.4666 -0.714318 0.0173549 -0.0144828 0.00281578 
437 1 37.2402 -10.7899 -1.02226 -0.00777126 -0.00924944 0.00157736 
456 1 37.7407 -8.86766 -2.04487 -0.00150724 -0.00328659 0.013108 
540 2 36.9166 10.4546 0.135484 -0.087891 0.0593507 0.0293824 
537 2 36.3366 10.149 0.604896 0.0149574 -0.00224512 0.0214861 
519 1 56.4595 7.54424 -4.24361 -0.00394143 -0.0231152 0.00299499 
508 1 57.53 11.243 -4.37943 0.0224434 0.0270396 -0.00423398 
506 1 58.036 9.89133 -4.36667 0.0225956 -0.0098584 0.0103895 
532 2 57.2573 8.25701 -1.50863 0.0470566 0.0196457 0.0367072 
535 2 55.6082 10.8337 -1.28493 0.0188899 -0.0189285 0.0107571 
531 2 55.623 7.19148 -3.79251 -0.0688241 0.111414 0.078581 
512 1 57.2226 8.72005 -3.79889 -0.00677926 -0.00322741 0.0239173 
514 1 56.768 11.457 -3.15167 0.00300371 -0.00366655 -0.0196643 
520 1 56.7441 8.98103 -2.27987 0.000623259 0.00449827 0.00576111 
523 1 56.2437 10.4287 -2.15672 0.000936801 0.0310117 0.0137712 
525 1 58.7836 11.8088 -8.6595 0.0115925 0.0126883 0.0109923 
436 1 39.7872 -10.9528 0.0699906 -0.00239745 -0.0284648 0.0101134 
455 1 39.1633 -8.39209 0.440626 0.0241589 0.0187634 -0.0264149 
463 2 41.4999 -10.5471 3.23931 0.020205 0.00634123 -0.0491271 
442 1 40.5233 -10.4047 1.27391 -0.0127942 -0.00661547 -0.0138603 
452 1 40.1136 -8.90126 1.29642 0.00643398 -0.030623 0.0114985 
451 1 40.9778 -11.0644 2.43533 -0.0107028 0.0266997 0.00291355 
526 1 56.7296 13.2419 -7.68923 0.0211821 -0.0124161 -0.012841 
538 2 56.4138 13.563 -8.49924 -0.0328691 -0.0245656 0.0497097 
528 1 56.6035 13.6203 -6.3753 -0.000312567 -0.0230927 0.0190969 
515 1 57.9108 12.4262 -7.6563 0.0120797 -0.0343326 0.0210914 
458 2 36.3029 32.5222 1.09999 -0.0104269 0.0267796 0.00060006 
483 1 54.6059 25.4213 6.65266 -0.0134767 -0.0239149 -0.00420032 
516 1 57.5517 13.3248 -5.18592 0.00633469 -0.0239899 0.00386303 
527 1 57.0375 13.6048 -3.71709 0.00195051 0.00437426 0.00927409 
524 1 56.4996 12.8943 -2.65659 0.012074 -0.00095344 -0.0242846 
536 2 56.2383 13.5249 -1.77893 0.0058372 -0.0041559 0.0735989 
499 2 56.1345 26.4311 7.59979 -0.0100561 -0.156745 0.0133439 
494 2 52.361 23.5568 2.61579 -0.0447488 -0.000521747 -0.0532276 
482 1 53.5339 23.4371 2.50361 -0.0030838 0.0172774 -0.0243235 
474 1 58.7218 23.9943 2.90926 -0.02688 -0.0057443 -0.00117479 
491 1 58.0267 23.9821 1.49826 0.00772646 0.0185085 -0.0114017 
497 2 59.0602 22.9844 2.85757 -0.0146352 -0.0681386 0.0112684 
488 1 56.8293 23.2764 1.23539 -0.00145439 -0.0422156 0.00313067 
500 2 57.9781 24.541 0.366844 -0.0315023 0.0687332 -0.0100867 
471 1 56.2357 23.8695 3.37836 -0.0141594 0.0286535 -0.00505814 
477 1 55.7588 23.3117 2.22254 -0.0118924 0.0184575 0.0186535 
498 2 54.5113 22.3304 0.467117 0.0812436 -0.031314 0.0346658 
485 1 54.4221 22.7497 1.76277 0.00290292 -0.00695853 -0.0252324 
469 1 55.0732 24.0417 4.52945 0.00457324 0.00843732 -0.00418247 
475 1 53.8605 23.6838 3.94171 0.0284694 0.0205009 -0.0103736 
501 2 56.6449 23.4082 0.156371 -0.108785 0.0655588 -0.0280492 
473 1 59.851 25.0899 3.62963 0.0239431 0.0197333 -0.00495473 
479 1 57.4434 24.4437 3.739 0.0161345 0.0214059 -0.00310959 
478 1 59.604 26.0894 5.89808 -0.00367028 -0.00664829 0.015429 
472 1 59.1156 25.2896 4.87778 0.0346742 -0.0113654 -0.0213829 
470 1 57.6516 25.0729 4.89802 -0.018253 -0.0136957 -0.0153182 
476 1 56.7479 25.0395 5.99105 -0.0020069 -0.00146574 0.0132706 
484 1 56.9552 25.9506 6.97377 0.00152156 -0.0134742 0.00758918 
487 1 58.2771 26.4127 6.53353 0.00380542 -0.0299655 0.0226734 
481 1 55.3251 24.6528 5.78305 -0.00481712 0.0112466 -0.00471621 
510 1 58.3882 12.2239 -5.11852 -0.00959829 -0.00516435 0.00435796 
434 1 39.7256 35.6813 -0.279168 0.000432787 -0.00632474 -0.0189174 
459 2 41.125 33.1233 1.81245 -0.00686377 -0.0426323 -0.0382477 
460 2 41.383 34.9356 2.68538 0.0191298 -0.0196883 0.0364838 
448 1 41.1882 35.5764 2.04464 0.014778 -0.00929115 0.0173727 
440 1 40.491 34.8472 0.974552 -0.0226215 0.0202252 -0.0205516 
447 1 40.4736 33.4315 1.11808 -0.00654919 0.0195533 -0.0273933 
445 1 39.2451 32.941 0.611335 0.00428747 -0.00521531 0.022758 
457 2 38.7617 32.053 0.862342 0.0563794 0.0306153 0.0333483 
433 1 38.3281 34.9789 -0.175048 -0.00525597 -0.0179986 -0.00268637 
439 1 38.0627 33.7943 0.471749 0.000621386 -0.00438963 0.016883 
446 1 36.5443 33.4793 0.711509 0.0299224 -0.00797707 0.00781909 
108 2 53.2375 23.0673 4.81382 -0.119741 -0.0576117 -0.0510336 
493 2 53.6627 25.4585 7.18739 -0.0227979 -0.0154187 0.017897 
102 2 59.2962 25.1933 10.387 -0.0783665 -0.0404919 -0.0553183 
435 1 37.1303 35.7122 -0.74501 -0.00737403 0.0159365 -0.0205604 
534 2 58.7113 12.1666 -9.72463 0.0494484 0.0126297 0.0121755 
178 2 58.3329 29.2676 16.5807 0.0569119 -0.0319037 0.057938 
168 1 58.0166 29.6037 17.6448 0.0356959 0.00509829 0.00133201 
164 1 55.4147 33.7091 17.4381 0.00188889 -0.0136505 0.00709568 
180 2 58.3879 31.9138 18.6658 -0.0865068 -0.0264853 0.0131713 
124 1 40.3064 14.2588 23.94 -0.0161313 0.000315926 0.00916241 
127 1 39.8467 14.7531 22.7724 -0.0106381 -0.00937038 -0.0118983 
139 2 39.639 14.0231 21.9936 0.0309346 -0.126853 0.00823472 
118 1 40.6007 16.1277 23.0035 -0.0223646 -0.00210156 -0.00147985 
140 2 40.4138 15.9056 21.0627 0.076902 -0.0473522 0.0143624 
128 1 40.6961 16.9399 21.7268 -0.0458717 -0.00328949 -0.0138249 
131 1 41.091 18.3625 22.0358 -0.0187439 -0.00348956 0.0131186 
143 2 40.4266 19.1371 21.4015 0.105139 0.0573901 0.0555072 
120 1 41.5544 18.6736 23.5348 -0.0188419 0.00724872 -0.0007845 
142 2 42.1865 20.7003 22.9109 -0.0499512 0.0110084 0.0913649 
165 1 53.287 26.8563 20.7332 -0.00359179 -0.0268736 -0.0195004 
174 2 54.489 26.6923 20.3867 -0.0627685 0.0407037 0.0234276 
162 1 53.309 27.926 20.9113 -0.0115736 -0.0171912 -0.017239 
166 1 57.5756 28.3571 18.1851 -0.00646298 -0.00175318 -0.0161601 
155 1 56.6311 28.3486 19.4026 0.0140202 -0.0208647 -0.00105486 
149 1 56.0299 29.7396 19.7046 -0.000366534 0.0202514 -0.0239975 
147 1 55.1658 29.8756 20.9076 0.00230033 -0.00383389 -0.011946 
153 1 54.1148 29.2997 21.3818 0.00660037 -0.000226271 -0.0178719 
161 1 53.9605 29.0668 22.8105 -0.00618706 0.00532174 -0.016703 
156 1 58.0536 30.7263 18.5202 0.0148988 -0.0119855 0.00627771 
150 1 56.7776 30.8953 19.2578 0.0118304 0.0162359 -0.0173516 
146 1 56.2874 31.9954 21.2956 -0.00413002 0.00747624 0.00324073 
148 1 56.5059 32.0577 20.0365 0.009162 0.00699419 -0.01925 
172 2 56.5856 35.4248 20.1802 0.0451088 -0.0331188 -0.00403094 
154 1 57.1052 33.3551 19.4267 0.00190214 -0.00698084 -0.00541322 
175 2 58.4147 35.0327 19.9133 0.0692283 0.0315487 -0.0407681 
163 1 57.4786 34.6903 20.352 -0.0214924 -0.00699112 -0.00321141 
167 1 56.1911 33.4306 18.366 0.00779092 0.0108325 0.00674992 
160 1 57.344 34.0566 21.7315 0.00306979 -0.00259559 -0.00458661 
145 1 55.3702 31.0468 21.789 -0.00201059 0.0303353 -0.00406992 
152 1 57.1312 32.8629 22.3974 0.0307645 -0.00219342 0.0118874 
151 1 55.2915 30.9909 23.2918 0.00329714 0.00643796 0.0177725 
116 1 40.5184 14.2004 25.2954 -0.0214183 0.0119915 0.020378 
123 1 40.4383 13.2756 26.333 0.00770594 -0.00515135 -0.00956591 
496 2 40.5526 12.2637 26.0546 0.0364993 0.0797915 0.0590142 
121 1 40.0625 14.0349 27.7189 -0.00661125 0.00518855 -0.000244262 
115 1 40.7027 15.2973 27.9807 0.00417101 0.0182429 -0.0278846 
122 1 40.4145 16.5114 29.2466 0.00707201 0.0124774 0.00990008 
110 1 41.0027 15.6797 25.7075 0.00969071 0.0129696 0.000727882 
112 1 40.8899 16.5289 24.4297 -0.00180128 -0.00562492 -0.00578089 
109 1 41.4987 16.105 26.9005 -0.00255189 -0.00819452 0.0214671 
125 1 41.2004 17.6915 29.3746 0.000998074 0.00226526 0.04619 
111 1 41.9651 17.5181 27.0874 -0.000224981 0.019801 -0.0217276 
117 1 42.3445 17.9485 28.5371 9.0011e-05 0.0193417 -0.0223713 
114 1 41.3133 17.9703 24.6049 -0.0484986 -0.0126964 -0.0189826 
113 1 41.8968 18.4228 26.0224 0.000808947 -0.0187679 -0.0199403 
126 1 42.8921 19.2806 28.5845 -0.00231231 0.00979757 -0.0198255 
119 1 42.7849 19.5425 26.384 -0.0169441 -0.00514482 0.0130879 
129 1 43.7404 19.4108 27.5076 -0.017977 0.0232683 0.0169734 
141 2 44.6797 20.0541 27.3317 0.00586955 0.105698 0.038646 
130 1 42.6095 20.3374 25.1703 0.0146285 -0.0063899 0.0107212 
132 1 42.1137 20.0955 23.7668 -0.0166885 -0.00697358 0.00516192 
173 2 53.8541 28.03 22.9816 0.0481682 -0.06796 -0.00550859 
158 1 54.454 30.0152 23.8152 -0.00566403 0.00269695 0.0150987 
170 2 54.3319 30.0345 24.9637 0.0110908 0.0663291 -0.0220411 
157 1 55.9769 31.9618 24.3271 0.0135284 0.0280522 -0.001228 
171 2 55.9202 31.9757 25.502 0.115422 0.039648 0.00961299 
159 1 56.9574 32.7878 23.8313 0.02388 0.00376072 -0.0190434 
169 2 56.9938 33.7699 24.6707 -0.0268869 0.00452352 -0.0665253 
134 2 40.3607 15.3259 29.7291 -0.0570414 0.0405665 0.0872145 
137 2 40.9031 18.2888 30.3515 -0.0376751 -0.0511274 0.0464085 
138 2 43.1496 19.8997 29.7616 -0.10057 -0.0667244 -0.00597625 
71 2 42.6793 31.9014 19.1226 0.0631932 -0.0313042 -0.0160174 
504 2 42.0945 31.5915 19.3926 0.089414 -2.62579e-05 -0.0895267 
361 1 76.4762 -11.2261 -9.29684 -0.0105246 -0.00989923 0.0179755 
367 1 75.7406 -10.9327 -10.7234 0.00236094 -0.0264599 -0.0005122 
385 2 76.3964 -10.9164 -11.6156 0.0153567 -0.0274678 0.0761266 
362 1 77.8886 -10.9042 -9.05429 -0.00416153 0.0115016 0.0355403 
375 1 79.4717 -10.7314 -11.6621 0.0125064 -0.0034861 0.0061608 
368 1 78.8369 -10.8639 -10.3934 0.00570082 0.00379904 -0.0257828 
376 1 79.9167 -10.627 -9.54581 0.0352341 0.00199419 0.00693803 
380 1 80.5621 -10.8093 -6.13068 0.00275876 0.0199303 0.0227219 
364 1 78.5326 -11.1608 -7.77995 -0.0115798 -0.00330462 0.0321062 
370 1 79.7908 -10.8452 -7.45559 0.0113457 0.00920966 -0.00117331 
379 1 80.824 -10.5345 -8.39247 0.00745878 0.00220966 0.0183267 
391 2 81.7881 -9.99018 -8.24946 0.00575875 -0.0685238 -0.0142287 
366 1 77.8324 -11.6219 -6.68173 -0.0120086 -0.0183583 -0.00903641 
205 2 70.3862 -3.31514 -9.30633 -0.0575409 -0.0234476 0.0228007 
193 1 71.2304 -2.64073 -9.39759 0.00132875 0.0035593 -0.00947103 
187 1 71.1924 -1.20041 -9.94524 -0.0240794 -0.00683169 -0.000420341 
194 1 69.9357 -0.938499 -10.627 0.0403566 -0.00123949 -0.00300734 
181 1 71.9608 -0.0374201 -10.0322 0.00518429 -0.0283382 0.0110207 
206 2 69.8979 -2.17806 -10.7389 0.00543789 0.0455504 0.0141312 
207 2 72.5404 -4.20897 -8.84952 -0.0291839 -0.0681394 0.0271755 
195 1 72.5268 -3.11572 -9.1009 -0.0131698 -0.0361232 0.0328922 
208 2 74.8135 -3.7252 -8.45511 -0.0359505 -0.0238106 0.017012 
188 1 73.3153 -2.06536 -8.9424 0.00500671 0.0198732 -0.0164361 
196 1 74.727 -2.6088 -8.64714 -0.011211 -0.00485129 -0.0135093 
211 2 76.4172 -1.86256 -7.36923 -0.0380823 0.0297467 0.0212484 
182 1 73.0191 -0.556568 -9.20594 -0.00459333 0.00593035 -0.00201374 
199 1 75.4566 -1.49326 -7.95629 0.0117533 0.00354676 0.0206207 
197 1 70.2619 0.163462 -11.644 -0.012006 0.00496352 -0.0288988 
189 1 71.1353 1.31942 -11.6194 -0.0104408 -0.0201237 0.00623548 
183 1 72.3373 1.13525 -10.6959 -0.0138877 -0.00279288 -0.00280644 
185 1 72.8803 2.22628 -10.2157 0.024188 0.0250209 0.00458495 
184 1 73.8406 0.347524 -8.72152 0.0185013 -0.00131719 -0.00840087 
190 1 74.8574 -0.196967 -7.70523 0.00129789 -0.00166886 -0.000142429 
200 1 75.7617 0.963645 -7.12333 0.00074437 -0.0038204 -0.0182783 
186 1 73.6152 1.74602 -9.15213 0.0161221 -0.0371368 -0.0138476 
212 2 76.5192 0.262378 -6.51936 -0.00734799 0.0326573 0.0389673 
203 1 75.6511 2.1881 -7.86118 0.00236532 -0.00264467 0.0310896 
192 1 74.6171 2.5603 -8.86848 -0.0230448 0.0274872 0.00461665 
215 2 76.09 2.7632 -6.80119 -0.0733344 0.0625208 0.0938915 
204 1 75.1895 3.50945 -9.80727 0.0164323 -0.0194389 -0.0221412 
202 1 75.4827 4.23461 -10.6036 -0.0115878 -0.0137214 0.0107492 
191 1 72.9981 3.05087 -11.3664 0.0325931 0.0251885 0.00025569 
214 2 75.8535 5.27254 -10.7444 -0.00545521 -0.0328132 0.0339853 
213 2 73.8678 3.08759 -11.8903 -0.0402095 0.0516894 0.0312951 
383 1 79.5383 -11.2849 -5.22565 -0.00446757 -0.00707895 0.012399 
392 2 81.5729 -10.3365 -6.00287 0.00633555 -0.0404284 -0.0350733 
372 1 78.2686 -11.6294 -5.32963 0.00355278 0.00483625 -0.0363731 
36 2 76.0487 11.008 9.97404 0.0608331 -0.107159 0.0212637 
363 1 75.8124 -11.9534 -8.25667 0.0273179 -0.000895927 -0.00463057 
24 1 76.8319 10.5924 10.69 0.0226658 0.0166055 0.0103656 
533 2 60.7228 9.58287 -9.13712 -0.0430146 -0.0778585 0.0111752 
12 1 77.9745 11.2569 10.5535 -0.00801113 0.000589177 0.00739908 
201 1 71.7861 3.60859 -12.0282 -0.00272313 0.0107244 -0.0157609 
6 1 78.7663 11.7472 11.9116 -0.0155418 0.0226937 -0.0067112 
388 2 79.8066 -11.7501 -11.7363 -0.0596943 0.102181 -0.0823182 
395 2 80.1487 -11.4844 -4.12208 -0.0385386 -0.0384934 -0.0362664 
21 1 75.8708 10.9561 14.5263 0.0215387 -0.00167179 0.0252647 
11 1 76.5912 11.0809 13.2347 -0.0348684 0.00192655 0.0268877 
133 2 70.3606 3.08956 34.8631 -0.0185512 0.0365255 0.0060468 
18 1 76.5751 11.3269 15.8148 0.00552888 0.0281225 -0.00703731 
30 2 74.8211 10.5397 14.4415 -0.0127537 0.0535904 0.0275015 
5 1 78.0747 11.7425 13.0282 -0.000170065 -0.0205734 -0.00539298 
69 2 61.2297 -7.37393 26.498 0.0179517 -0.121875 -0.0125468 
41 1 63.0767 -8.39416 24.5241 -0.0188757 0.0050703 0.00568186 
39 1 63.865 -7.11385 24.466 0.00237657 0.0183423 0.00701192 
45 1 63.5878 -5.80116 23.9139 -0.0186457 -0.0102556 0.0228695 
62 2 62.8083 -5.72079 23.1411 0.0656616 -0.0428903 0.0527463 
70 2 63.0329 -11.0673 22.2412 -0.061124 -0.0603959 0.0496713 
58 1 62.3058 -9.11505 23.3937 0.0189796 0.00257468 -0.00176684 
60 1 62.9532 -10.3688 23.1868 -0.0226959 0.0130746 -0.0252426 
54 1 60.8503 -7.10823 25.5588 -0.0230865 0.0174143 -0.0195904 
53 1 64.6377 -4.61557 24.1828 -0.0296117 -0.0225339 0.0260106 
65 2 64.1179 -3.92206 23.4413 -0.0249376 -0.062137 -0.0246379 
574 2 80.7045 1.91078 14.866 0.0245752 -0.0196872 -0.0726502 
352 2 80.2387 2.28162 14.3083 0.0179822 0.0674889 -0.0252344 
47 1 61.0199 -8.3217 23.3588 0.0295782 -0.00775726 -0.00843569 
57 1 60.7764 -7.32846 24.4507 0.0126627 -0.00419405 0.00630837 
48 1 63.6774 -10.659 24.4955 -0.0279672 -0.00769106 -0.00374686 
42 1 63.3517 -9.44365 25.4418 0.00425227 -0.0109537 8.79575e-05 
56 1 63.945 -11.9123 25.1271 -0.00853272 -0.0179272 -0.0028649 
59 1 64.233 -11.8345 26.5357 0.00512311 -0.0127216 0.00636602 
46 1 64.7702 -10.5456 26.996 0.00655324 -0.0088909 0.0163302 
55 1 65.5739 -10.7371 28.1562 0.00265476 0.00508777 0.00506522 
40 1 64.3831 -9.16113 26.3649 -0.0240369 0.00734681 -0.00673089 
38 1 65.4416 -8.26961 26.1714 0.0338268 0.0346287 0.025311 
52 1 66.721 -9.9579 28.176 0.032834 0.0033842 -0.00657157 
51 1 67.3435 -8.74078 27.9819 -0.00579331 0.00312339 -0.00909831 
37 1 64.9096 -7.06538 25.4216 0.0189967 0.00564175 -0.00551337 
67 2 65.2695 -12.0062 28.3506 -0.00845266 -0.0130089 -0.0645977 
198 1 71.0991 2.47934 35.5448 -0.0223917 0.0062461 0.0223043 
63 2 67.636 -8.163 28.6974 0.147025 -0.0297239 -0.00619712 
44 1 66.6803 -8.08472 26.6982 -0.00105226 -0.00328467 -0.0138018 
49 1 66.9217 -6.65816 26.5615 0.00870107 -0.0142344 0.00624389 
323 2 75.6685 -5.19347 27.8386 0.0793748 0.0513203 0.0411709 
311 1 76.7799 -5.50898 28.0286 0.00812172 0.0241313 -0.00321873 
308 1 77.5802 -4.70629 28.9002 0.0109401 0.00588351 -0.00357811 
300 1 77.3636 -6.56402 27.3606 -0.0183944 -0.00409448 -0.0146215 
312 1 76.252 -7.36032 26.8407 0.0147329 0.013841 0.037655 
324 2 75.4338 -6.69298 27.1094 0.0536863 0.123061 0.0458465 
322 2 77.5616 -9.7489 26.9773 -0.0556386 -0.000358831 0.0743348 
321 2 76.3574 -7.63173 25.8185 0.0779816 -0.0392143 -0.0633306 