ITEM: TIMESTEP
110000
ITEM: NUMBER OF ATOMS
576
ITEM: BOX BOUNDS pp pp pp
-1.2000000000000000e+01 8.4000000000000000e+01
-1.2000000000000000e+01 3.6000000000000000e+01
-1.2000000000000000e+01 3.6000000000000000e+01
ITEM: ATOMS id type x y z vx vy vz 
316 2 -5.67313 9.15238 -11.7488 -0.0521161 -0.0118482 -0.0298093 
307 1 -6.10291 10.5199 -10.6407 -0.00131461 -0.0129642 0.0140807 
301 1 -1.28757 9.15535 -10.5961 0.00760959 0.0224702 -0.0125074 
313 2 -0.256571 8.65862 -10.901 0.03768 0.083833 -0.0562386 
302 1 0.123438 11.3068 -10.9508 0.00390654 0.0334711 -0.0139692 
295 1 -1.0383 10.6699 -10.6315 0.0128266 -0.00567793 -0.0206136 
289 1 -2.02246 11.6952 -10.7742 -0.0106707 0.0211164 -0.0238448 
303 1 -2.61991 8.55327 -10.3995 0.0125988 -0.0108679 0.00448588 
314 2 1.36026 11.3487 -11.4664 -0.0320787 0.0342011 -0.135933 
296 1 -3.55877 9.4804 -10.5957 0.0163417 0.0208443 0.00807781 
290 1 -3.41062 11.0632 -10.8536 -0.0290041 0.0173011 -0.0137686 
315 2 -2.68677 7.50612 -10.774 -0.0116443 -0.00420556 -0.069435 
304 1 -5.06166 9.52334 -10.8982 -0.00129696 -0.000454871 -0.000850695 
319 2 -7.12718 10.1196 -10.3098 0.0354643 -0.0915015 0.0294454 
298 1 -5.99987 11.9192 -11.094 0.0121247 -0.0314288 0.028618 
292 1 -4.44875 12.0057 -11.0141 -0.00783156 -0.019328 -0.00230518 
294 1 -4.2947 13.4949 -11.1107 0.0128768 0.013542 -0.0464285 
293 1 -2.72707 14.0275 -10.7151 0.0118584 -0.00498805 -0.013998 
572 2 -3.49521 26.5667 8.19047 0.0659989 0.0996239 0.0810193 
300 1 -5.2796 14.3266 -11.7169 -0.0393098 -0.00297358 0.0379563 
305 1 0.428498 12.5591 -10.7021 -0.0329906 0.0199561 -0.021678 
291 1 -1.87209 13.1146 -10.3975 -0.00575784 0.00360316 0.00427428 
299 1 -2.5557 15.1804 -11.2801 -0.0350496 -0.0245595 -0.0139308 
317 2 1.70895 12.7717 -10.9997 0.0299119 -0.00226665 0.0164696 
310 1 -3.46831 16.0037 -11.9786 -0.0086102 -0.010854 -0.00447164 
311 1 -6.84693 14.0601 -11.9523 -0.0136892 -0.0151631 -0.0137606 
306 1 -0.130222 14.8648 -10.3273 0.00946796 0.00580376 -0.0121521 
321 2 -1.33547 16.7032 -11.2455 -0.03501 0.0380688 -0.0528 
309 1 -1.02588 15.7373 -10.9004 -0.0150501 -0.0095815 -0.0182079 
318 2 1.03944 15.3034 -10.1501 0.017542 0.0321648 -0.0985963 
297 1 -0.493859 13.5226 -10.1801 -0.00789155 0.0231854 -0.0101533 
553 1 -6.82434 23.8376 2.52483 -0.0407547 -0.000623111 -0.00784112 
566 2 -7.05781 22.0481 1.70397 0.0257397 0.0134594 0.0640464 
565 2 -8.01703 23.5506 2.25247 0.0244387 0.0149008 -0.0602479 
554 1 -6.51119 21.4325 2.60137 -0.0121291 -0.0212287 0.0154729 
547 1 -5.89361 22.7459 2.75094 0.0214635 0.0217825 0.00633803 
541 1 -5.11868 22.7631 3.96927 0.0331533 -0.0248599 -0.0059147 
557 1 -7.04472 20.6977 3.72987 0.0302225 0.0158668 0.00517289 
569 2 -8.26455 20.7026 3.84995 -0.055055 0.0717338 -0.0258994 
543 1 -4.79949 21.6446 4.77258 0.0297658 -0.000512716 -0.0117372 
549 1 -5.97793 20.7974 4.62674 0.0125615 0.00776897 0.00536383 
558 1 -5.77821 19.7655 5.62835 0.00867199 -0.00308777 -0.0226197 
542 1 -4.92123 24.1086 4.26712 0.0133641 -0.0142991 0.00604149 
567 2 -7.65303 26.034 2.85062 0.0605156 -0.000966084 0.135612 
555 1 -7.01231 25.1415 3.0424 -0.0164134 -0.00250905 0.00131849 
548 1 -5.82542 25.2482 3.88688 -0.00354693 0.00827663 0.000735979 
556 1 -5.87635 26.5149 4.58658 0.0029984 -0.00885824 0.0159114 
568 2 -6.57792 27.4038 4.62922 0.0144525 0.0645852 0.00142008 
559 1 -4.69377 26.7124 5.53255 -0.015258 -0.0147871 0.00226532 
571 2 -4.28282 27.7221 5.70679 0.0221705 -0.0372959 0.0625254 
570 2 -6.65622 19.2369 5.79992 0.00384324 0.0171221 -0.114875 
564 1 -2.64537 22.1544 8.13832 0.000911668 -0.0256211 0.00181458 
573 2 -4.27738 18.8867 6.99608 -0.0748977 0.0227009 0.115031 
561 1 -4.4982 19.6577 6.16539 0.0224122 0.00674098 -0.00436309 
545 1 -3.87186 21.8522 5.67438 0.000477769 -0.0335708 -0.0358063 
551 1 -3.64308 20.9069 6.5419 -0.014058 0.00617115 -0.0233396 
574 2 -2.24299 19.9167 7.90241 0.0460719 0.00944283 -0.0222095 
562 1 -2.64937 20.8458 7.56767 0.00702208 -0.0221268 0.010734 
546 1 -3.8688 23.1979 6.32209 -0.00419499 -0.0301211 -0.0091711 
576 2 -1.93193 22.6286 8.49123 0.0398569 0.014644 0.0132275 
552 1 -3.41273 23.363 7.68579 0.00396425 -0.0251076 -0.0303119 
544 1 -4.31416 24.3901 5.60356 0.0142274 0.0298891 -0.0190836 
550 1 -4.20284 25.5545 6.41426 0.00129856 0.00625688 0.0262106 
575 2 -1.83795 24.6983 8.87392 -0.0266713 -0.0731604 0.0759983 
560 1 -3.42763 25.69 7.59837 -0.00272378 -0.0116211 -0.00566389 
563 1 -2.71741 24.5767 8.20036 0.0153396 0.0356861 0.0102334 
308 1 -7.16117 12.849 -11.2431 -0.0351639 0.0235641 0.00883679 
320 2 -8.12178 12.505 -10.6966 0.0125319 -0.160641 0.000393607 
312 1 -4.84545 15.6789 35.8236 -0.00489209 -0.0248669 -0.00350332 
324 2 -5.6469 16.1276 35.5602 0.0682862 -0.0192643 0.0482193 
322 2 -3.26144 16.8867 35.948 -0.0299808 -0.0753508 0.0675719 
323 2 -7.69578 14.6703 35.8136 -0.0276395 -0.0309473 -0.00479431 
57 1 15.1323 3.78317 -9.43865 -0.00167226 -0.0336111 0.0119708 
47 1 16.089 3.19813 -8.3802 -0.00197211 -0.02745 -0.00198361 
41 1 17.5907 3.17137 -8.86417 -0.0348091 -0.033957 0.014337 
72 2 16.5965 2.29415 -5.08677 -0.0525607 0.0254526 -0.0301833 
58 1 16.0011 2.40468 -7.36119 0.00203881 0.047484 0.0199705 
60 1 16.8437 2.50866 -6.09225 -0.0316002 -0.00731841 0.000876027 
70 2 15.168 2.34917 -6.73523 0.178909 0.101705 -0.000445101 
69 2 14.1138 3.71533 -9.1697 -0.0567729 -0.00864881 0.0328516 
45 1 17.0153 3.34016 -10.9787 0.0149131 -0.00654899 -0.00887743 
54 1 15.6169 3.65128 -10.7005 -0.0117707 0.0313019 -0.00984022 
42 1 18.4844 3.18555 -7.82772 0.0348251 -0.0147045 0.0145798 
48 1 18.098 2.76083 -6.39847 -0.0019794 0.0113118 -0.0228256 
66 2 15.1077 3.72838 -11.7347 0.006157 -0.00620793 0.0297775 
39 1 18.0242 3.79382 -10.0392 0.0109343 0.027485 0.0164797 
37 1 19.2193 3.03908 -10.5717 0.00791204 -0.00210255 -0.00387451 
40 1 19.8812 3.46979 -8.14552 0.0236783 -0.0101181 -0.00735882 
44 1 21.7323 3.03172 -10.0119 -0.0190976 -0.00912244 0.0209669 
38 1 20.2698 3.17311 -9.58685 0.00356971 -0.0175385 -0.00298726 
52 1 22.7686 3.04034 -8.70789 0.000540056 -0.0248724 -0.0308176 
64 2 23.8917 3.0925 -8.77469 -0.0442602 -0.0343726 -0.0325075 
55 1 22.2908 2.81271 -7.48714 0.0258433 -0.00820807 -0.0190413 
67 2 22.7631 2.40296 -6.66853 0.162609 0.0270355 0.0405247 
46 1 20.7923 3.06057 -7.27827 0.00911176 -0.0213241 0.0146363 
51 1 22.0398 2.96815 -11.3969 -0.0151188 -0.000371958 0.0165583 
136 2 26.8129 -0.998675 -11.7189 0.0390567 -0.059557 0.0453314 
59 1 19.0035 2.35902 -5.3124 -0.00139631 0.0208926 0.0251911 
68 2 21.0935 2.85743 -5.09731 0.024045 -0.0519873 0.025091 
56 1 20.3379 2.99621 -5.77702 -0.00225733 -0.0180759 0.00894974 
71 2 18.6991 2.05023 -4.41 0.0105235 0.044827 0.101421 
284 2 23.6943 8.76249 -10.738 0.0341661 -0.0368249 0.0135082 
272 1 23.1506 8.75145 -11.5426 0.0190366 0.00416066 -0.022417 
43 1 19.5343 2.7125 -11.8884 -0.000356353 0.0178968 0.00699543 
287 2 21.381 10.1131 -11.1539 -0.0102062 0.0715353 -0.0379861 
275 1 21.8395 9.43054 -11.8117 0.0306767 0.0145391 -0.00163471 
120 1 23.721 0.629155 30.8247 -0.0118194 0.00063016 0.00719951 
114 1 25.1622 0.822214 31.1525 -0.00722514 0.00699051 0.0146785 
137 2 30.1171 0.737043 28.3996 0.0234064 0.0443242 -0.0115169 
125 1 29.7863 0.19982 29.2221 0.0191394 -0.00808215 0.0220166 
122 1 30.2459 0.452258 30.5621 -0.0147415 0.0168449 0.00467558 
144 2 22.4543 1.1395 29.1008 -0.0906539 -0.059649 -0.0439425 
132 1 23.4948 1.17914 29.4353 -0.00960187 0.00594134 -0.00124504 
142 2 23.565 1.17965 27.2122 -0.0534051 0.0111405 0.0590599 
130 1 24.2114 1.44009 28.1917 0.00639257 0.00365249 0.000750667 
141 2 25.9969 1.06521 26.8735 -0.0337841 -0.0408135 0.0181601 
129 1 26.8002 0.819314 27.7268 -0.0182832 -0.0109098 -0.00650418 
119 1 25.54 0.965191 28.5934 0.00636481 0.00263538 0.00704164 
126 1 28.0284 0.539857 27.8597 -0.0174398 0.0221359 -0.0140406 
111 1 27.3256 0.41835 30.1471 -0.0297239 0.0061729 0.0138013 
113 1 26.0081 0.681991 30.0317 -0.00371226 -0.00130677 -0.00377713 
138 2 28.8715 0.566653 26.9697 -0.0655073 0.00511342 0.0778617 
117 1 28.2607 0.418904 29.2026 -0.00260596 0.00956982 0.00765913 
525 1 28.9692 7.72226 29.6561 -0.0162593 -0.00278823 -0.00655509 
537 2 29.2754 7.07584 28.9577 0.0186504 -0.0825596 -0.0189147 
534 2 27.0432 8.14961 29.463 0.139044 -0.0488705 0.0435251 
522 1 27.6641 7.73781 30.2521 -0.00189414 -0.0325764 0.00542512 
526 1 31.325 7.02056 29.8607 -0.0102818 -0.00775086 -0.0087431 
528 1 32.4277 7.5785 30.191 -0.0319487 0.0133282 -0.000659774 
538 2 30.9497 5.87033 29.588 0.0681799 0.0181513 0.06972 
540 2 33.4289 7.36834 30.1522 -0.092579 -0.028208 -0.00213329 
143 2 21.7534 -0.141588 31.8133 0.00648412 0.0339561 -0.0502716 
131 1 22.743 -0.372119 31.554 -0.0343591 0.00204052 0.025765 
115 1 29.4962 -0.170842 31.6357 -0.00283218 0.00391036 -0.00167607 
134 2 31.1788 0.831638 30.9544 0.0107221 -0.0272606 -0.0316384 
121 1 30.0148 0.0290206 33.0358 -0.0144354 -0.00956141 0.0372788 
133 2 30.8481 0.209061 33.6499 -0.0450416 0.00920794 0.0322174 
135 2 29.2854 0.00782694 35.1104 -0.00821233 0.0784626 0.0531607 
262 1 23.7313 7.95345 35.3245 -0.0195966 -0.0116053 -0.0267378 
53 1 17.3508 3.41008 35.6822 -0.00724114 -0.010731 0.0180695 
65 2 16.6428 3.98511 34.9505 0.0239907 -0.0344762 0.01904 
281 2 18.2085 4.51696 31.1106 -0.0205654 -0.0964507 -0.0452187 
62 2 18.946 2.97529 34.2207 0.0112531 0.0333001 0.0803541 
278 2 20.8845 3.08663 31.1804 0.0803533 0.0262344 -0.0847624 
269 1 19.3562 4.66897 30.9811 0.00257974 0.0169675 0.00681621 
254 1 22.6786 6.36845 33.6583 -0.0170382 -0.00197149 0.0110871 
259 1 21.4442 4.20929 32.8057 -0.00206604 -0.00836366 -0.0189976 
260 1 23.6777 5.39553 33.676 -0.0111718 0.0102716 -0.00623411 
277 2 22.5427 2.60732 31.7598 0.0410583 -0.0590703 -0.029822 
265 1 22.7607 3.42885 32.4205 0.00403435 0.0107011 0.00881689 
266 1 20.5611 4.01582 31.486 -0.000707805 0.0179945 0.0162381 
267 1 23.8087 3.9179 33.1096 0.00178639 0.0360287 -0.0215011 
253 1 21.5533 5.6488 32.9841 0.00859751 -0.032628 -0.00816899 
50 1 18.5472 3.12029 35.3573 -0.0297732 0.0136687 0.00263333 
279 2 24.9791 3.7589 33.2257 0.0696018 0.0427449 0.0042581 
140 2 23.1994 -1.94089 33.1642 -0.0954208 0.00282243 0.0366467 
61 2 21.2345 2.34596 34.7162 0.0172761 0.011943 -0.00493967 
109 1 28.0621 0.0533313 31.4118 -0.00738445 -0.0135925 0.0163917 
110 1 27.1506 0.00436185 32.5273 -0.00108785 0.0118818 0.00390049 
268 1 24.8518 5.92037 34.4589 -0.00754476 0.0599656 -0.0148758 
112 1 25.7362 0.0237125 32.2169 0.0346478 0.0248775 0.0110092 
128 1 23.3418 -1.08072 32.6166 -0.0371785 -0.0170398 0.017075 
118 1 24.7275 -0.307633 33.1381 -0.0156332 -0.0255019 0.0197127 
127 1 25.1754 -0.438527 34.4505 -0.0175055 0.0144328 -0.011905 
139 2 23.9346 -0.548658 34.7125 -0.0108125 -0.129737 0.0138891 
124 1 26.4867 -0.500999 34.8905 -0.00255024 -0.0419401 -0.007361 
116 1 27.5274 -0.0932674 33.8872 -0.00882791 -0.0072624 0.021469 
523 1 32.489 11.8796 34.11 -0.0110902 0.0110931 0.00185298 
123 1 29.003 -0.0218743 34.0375 0.0149978 0.0159801 0.0189259 
285 2 16.7589 7.73619 32.1537 0.102484 -0.0039553 0.0215492 
282 2 17.7426 6.46355 30.4529 0.0115431 -0.0321055 -0.0700213 
255 1 20.4622 6.47367 32.4881 0.00721218 -0.0233679 0.0157357 
286 2 17.6236 8.76838 34.3802 -0.0137849 -0.0607935 -0.0359236 
270 1 18.3486 6.7379 31.278 -0.000863694 -0.00835299 0.00308973 
261 1 19.5564 6.04589 31.5702 -0.00969719 -0.00188633 -0.0125499 
273 1 17.8083 7.54045 32.2126 0.00876092 -0.0155966 0.00622342 
263 1 18.87 8.21319 33.0396 0.00362278 0.0118445 0.00740612 
257 1 20.2622 7.6773 33.1544 -0.00506327 0.0019972 -0.00187869 
274 1 18.7204 8.65833 34.4039 0.0307046 0.000445166 0.00408867 
258 1 21.2895 7.94267 33.9783 -0.00114201 -0.00221436 0.0133396 
256 1 22.6392 7.71444 34.2638 -0.00150838 0.000142159 0.00789674 
276 1 19.72 9.5048 34.9022 -5.18937e-05 0.0125308 -0.010878 
264 1 20.9936 8.98098 35.2245 -0.0148895 -0.028863 -0.00138483 
513 1 27.7118 8.52542 31.6074 0.000335524 -0.0138976 -0.0126154 
533 2 26.4565 7.39329 32.6979 0.0276521 0.0143478 0.0803819 
521 1 26.8633 8.49561 32.881 -0.00182339 0.0154326 0.0225597 
518 1 26.4997 9.8623 33.1686 -0.00581054 0.00309829 0.0184615 
530 2 25.5598 9.54393 33.6246 -0.0104971 -0.00879139 0.0236283 
505 1 29.0631 9.64521 33.4972 -0.0152323 0.00538735 -0.0209362 
507 1 28.9777 8.95344 32.2578 -0.00413824 -0.0118637 0.0013657 
511 1 27.7327 10.23 33.783 -0.0240343 -0.00275419 -0.0084953 
517 1 27.6835 11.5139 34.5122 0.00607094 -0.00391496 0.00772283 
529 2 26.797 11.9562 34.7259 0.111551 -0.0221225 0.00610711 
515 1 30.0605 7.85346 30.5038 -0.00234379 0.0060389 0.0170815 
527 1 33.3642 9.98664 30.7738 0.00773058 -0.0106975 -0.002938 
539 2 34.1749 10.1151 30.0439 -0.0581467 -0.0360575 -0.152421 
508 1 31.0885 10.3706 32.5784 0.0105842 -0.015338 0.0115948 
510 1 31.4034 9.23115 31.8298 0.000299251 0.00775449 0.00773095 
514 1 32.129 11.3576 32.8662 0.00897926 -0.00849673 -0.0142339 
506 1 30.139 10.5162 33.5422 -0.0196486 -0.0212043 0.00902847 
524 1 33.2747 11.2184 31.7917 0.01323 0.0081744 0.0195812 
516 1 32.2238 9.10979 30.6373 0.0108595 -0.00753308 -0.000381214 
509 1 30.2221 8.70474 31.6224 0.00541815 0.00749877 -0.00379462 
280 2 25.8166 5.50556 34.8085 0.0343076 0.00668231 -0.0736389 
49 1 20.9765 2.77872 35.6941 -0.0285857 0.0326147 -0.00295042 
271 1 24.8535 7.20831 35.084 0.00950574 0.00540773 0.00361859 
512 1 30.0241 11.5796 34.536 -0.00561636 0.00639639 -0.00829676 
63 2 22.8307 2.64702 35.8678 0.0799647 -0.0245852 0.0466989 
283 2 25.5815 7.34777 35.8116 0.0312473 -0.0314493 -0.0927867 
288 2 19.4805 10.2637 35.7327 -0.0735814 0.0738523 -0.0606981 
241 2 17.7249 16.7949 -7.42574 -0.0508438 -0.0209412 0.0539025 
229 1 17.5408 17.9048 -7.54305 0.0257117 0.0245048 0.0208445 
231 1 16.3841 17.7909 -8.46462 -0.00953032 -0.0171919 -0.000979446 
243 2 15.9323 16.6961 -8.89288 -0.0532617 -0.0361711 -0.00607772 
222 1 17.3998 22.1681 -10.7732 0.00171097 -0.010311 -0.00659907 
221 1 17.9271 22.434 -9.50546 0.0334114 -0.0082768 -0.0166816 
219 1 18.5189 21.3338 -8.81708 -0.0168951 -0.0181505 -0.0281763 
230 1 19.1023 19.4194 -6.63994 0.0158144 0.00695698 -0.00723659 
227 1 18.4928 23.7229 -9.25962 0.005562 -0.0131473 0.0112739 
233 1 19.9893 20.5175 -6.84696 0.00551092 0.00798436 -0.0189834 
217 1 17.7345 20.2333 -8.78961 -0.0152976 0.000306671 0.00634364 
223 1 18.0558 19.2754 -7.73863 0.0111937 -0.0125399 0.020522 
218 1 16.3988 20.1784 -9.72261 0.010932 0.00571352 0.046155 
228 1 17.2527 23.1954 -11.6061 0.000976368 -0.00576524 -0.0138235 
220 1 16.2528 21.2905 -10.4794 0.0222104 0.000972129 0.0309427 
224 1 15.8649 18.8919 -9.51349 0.007142 0.0149162 -0.00975942 
242 2 19.3613 18.3894 -6.60651 0.0712808 -0.0375366 0.0674413 
225 1 19.1412 21.4545 -7.50603 0.0230443 0.00647373 0.000843496 
237 1 19.0163 24.1071 -8.02178 0.0153172 0.00404359 -0.00772413 
234 1 19.3731 22.8644 -7.32832 -0.0048579 0.00353723 0.0119851 
246 2 20.1498 23.1797 -6.60353 -0.0539894 0.0513356 -0.00292037 
250 2 19.1756 25.6989 -10.1741 0.0430944 0.0205205 -0.0441264 
238 1 18.8011 24.693 -10.423 0.0201961 0.0138035 -0.00962891 
244 2 14.7736 17.7282 -11.2375 0.070257 0.0535776 0.0516315 
240 1 18.3339 24.2001 -11.5984 0.035002 0.00968384 0.0113844 
249 2 19.0697 25.108 -7.66169 -0.0332706 0.0520533 0.03812 
245 2 20.9472 19.8359 -7.06627 0.0359599 0.000939277 0.105928 
232 1 15.4197 18.5033 -10.9163 0.000335605 -0.0060527 0.0028249 
226 1 15.6464 20.9242 -11.9499 -0.0146934 -0.0248547 0.0208352 
392 2 25.8798 23.3155 17.6937 0.0108135 -0.0369949 0.0800145 
380 1 26.3399 23.7689 18.5239 0.0131773 -0.00502777 -0.0191027 
395 2 26.7653 21.3619 18.5514 0.0252372 0.0844891 0.00917385 
396 2 27.9461 20.8034 20.9676 -0.0220999 -0.056061 0.0393408 
384 1 28.012 21.8726 21.2478 0.00564115 -0.00659613 -0.00688514 
383 1 26.9902 22.5833 18.9864 0.017214 0.00843571 -0.0354247 
372 1 27.6039 22.876 20.3352 0.0113871 0.00725632 -0.00685659 
366 1 27.321 24.239 20.6112 0.0261989 0.0129439 -0.0406267 
382 1 28.406 22.3219 22.5289 0.00732277 0.0130787 -0.0124222 
394 2 29.0806 21.6408 23.0224 -0.0359593 0.0427439 -0.0889521 
371 1 28.1833 23.7706 23.0314 -0.00376103 0.0180489 0.00497209 
388 2 26.791 27.9694 17.4939 0.0214591 0.0358057 -0.0749473 
370 1 25.7677 25.0793 18.9612 0.0166057 0.00256362 -0.0222393 
365 1 27.4147 24.5087 22.0397 -0.0136046 -0.0127637 -0.00265664 
379 1 25.6014 26.4627 18.1798 0.0069857 0.0105879 -0.0250522 
391 2 24.7765 26.8104 17.3572 -0.0356992 -0.0702916 0.0943275 
376 1 26.8219 27.1644 18.2626 0.0174086 0.0165942 -0.00541331 
368 1 26.8133 27.331 19.7592 0.0339014 -0.00898512 -0.0201224 
364 1 26.6765 25.2068 20.0286 0.0115742 0.00514789 -0.0201108 
362 1 26.1251 26.474 20.699 -0.00784742 -0.0103294 -0.019943 
363 1 26.9476 25.6426 22.9543 -0.013444 0.00311055 -0.017418 
361 1 26.3185 26.71 22.118 -0.00873561 -0.00468368 -0.00115087 
375 1 26.7485 28.709 20.3496 0.023572 0.0114792 -0.029386 
387 2 27.2592 29.2721 19.4306 0.0317343 0.0317874 0.0313405 
373 1 26.3652 29.0957 21.5179 0.0262063 -0.0150583 -0.0026171 
385 2 26.2729 30.1639 21.9655 0.0350645 0.0825443 -0.0654487 
367 1 26.7699 28.0239 22.6 -0.016138 0.0328159 0.00635375 
393 2 29.7532 23.7961 24.5573 -0.0561047 -0.073075 -0.0287655 
381 1 28.8084 24.3253 24.1857 -0.00432242 -0.00889015 -0.00556552 
378 1 28.1467 25.2199 25.1364 -0.00471858 0.00625463 -0.00255107 
369 1 27.2843 25.9147 24.4599 0.00776786 0.0145038 0.0162176 
377 1 27.2819 27.3228 24.7925 -0.0128508 0.0292836 0.0106986 
389 2 27.8958 27.6912 25.5824 0.0404354 -0.00277581 -0.00874636 
386 2 26.3874 29.3472 24.3878 0.0641541 0.0174158 0.0232659 
374 1 26.5691 28.252 24.0437 0.000611721 0.0198197 0.00525264 
89 1 25.9658 32.1968 28.1784 0.0224405 0.0166985 0.00264996 
390 2 28.822 25.0769 25.9347 -0.095145 -0.0940998 -0.0152922 
98 2 25.2426 30.3654 27.8758 0.017314 0.0732469 0.0691995 
86 1 26.0704 30.8395 28.192 -0.0279848 0.018956 -0.00865288 
101 2 25.4881 33.0813 27.5108 0.0027859 -0.0634787 -0.0718405 
102 2 27.1076 33.8288 27.1645 0.000282936 0.00960184 0.0304956 
90 1 27.4744 33.9999 28.2253 0.0196395 -0.00675999 0.0024592 
93 1 28.657 34.7609 28.837 0.0311335 0.0298759 0.0200523 
83 1 29.091 34.0848 30.043 -0.0134284 0.0207626 0.00568512 
106 2 29.3753 35.4427 32.039 0.0103201 -0.046866 0.0757893 
94 1 29.5289 34.5386 31.3763 0.0182548 0.00402486 0.0309642 
105 2 28.6891 35.7861 29.1546 0.0083939 -0.0160706 -0.04711 
81 1 27.2066 32.682 28.7579 0.0205787 0.00270734 -0.0174185 
75 1 28.0871 31.8044 29.4314 -0.00134103 -0.000947912 -0.00982067 
252 2 18.2848 24.5053 35.3017 -0.0532579 -0.044524 0.0494665 
531 2 28.5109 12.998 35.5215 -0.00442875 0.00116259 -0.0138281 
519 1 28.639 12.0631 35.1093 -0.00399922 -0.00960644 0.00327969 
107 2 33.3643 32.5012 32.4471 -0.0618478 0.0267904 0.0326551 
532 2 30.9271 12.9247 35.3576 -0.0172892 -0.0490996 0.0547226 
520 1 31.2023 12.1877 34.7216 0.0138882 -0.0215955 0.0248683 
104 2 33.351 29.7272 32.2561 -0.0147866 0.0124066 -0.0290085 
535 2 33.7304 12.0521 34.3425 0.0392779 -0.0742048 -0.0503585 
84 1 31.2832 32.4366 31.111 0.032119 0.00267785 -0.0107894 
235 1 15.7258 19.4703 35.8767 -0.00109904 0.00479455 0.0176219 
536 2 33.9686 11.9149 32.4365 -0.0203342 -0.105809 0.0113984 
247 2 15.5454 19.0717 34.8918 0.0527906 0.013668 0.0434381 
236 1 15.4622 22.0448 35.0569 -0.0049791 -0.0326811 0.00438708 
248 2 14.9893 21.9436 33.9855 0.0182145 0.0703547 -0.0483906 
239 1 16.482 22.8409 35.1248 -0.000593686 -0.00516637 -0.0092085 
251 2 16.7126 23.4472 34.348 0.0814267 0.0396353 0.00658907 
85 1 26.9786 28.6588 29.5602 -0.0136478 0.0174644 -0.00710877 
73 1 28.4527 30.3887 29.2027 0.0328785 0.00374359 -0.0222303 
74 1 29.2508 29.8176 30.1926 0.0184052 0.00638828 -0.00349319 
79 1 27.1424 30.0089 28.8966 0.00128593 -0.00392432 -0.00850567 
97 2 26.1678 28.1744 29.0052 0.00907694 -0.0372087 -0.00323529 
80 1 29.2016 28.5231 30.9922 -0.0351567 -0.000751623 0.018311 
87 1 27.7503 28.2392 30.5945 0.00470515 0.00830578 -0.0332478 
99 2 27.2093 27.2477 30.7239 0.0502313 0.0781751 -0.152179 
91 1 31.1334 28.258 31.9101 -0.00408624 -0.00363122 0.00558231 
103 2 31.3001 27.7902 33.001 -0.0890141 -0.0115646 0.0328732 
88 1 29.9984 27.4684 31.6808 -0.000665749 -0.0217933 -0.00307226 
100 2 29.3408 26.6677 32.1788 0.0615359 0.0297678 0.00735894 
77 1 29.1022 32.6306 29.9671 0.0343452 0.00438676 -0.011546 
78 1 30.3101 31.7701 30.4037 -0.0392184 0.0374334 -0.013122 
76 1 30.2635 30.3175 30.6564 -0.0467938 0.00587154 -0.0262316 
96 1 30.6302 33.6795 31.7116 0.0222371 0.0134776 0.0171991 
108 2 31.3111 34.6746 32.2605 0.0879095 0.00317651 0.0413648 
92 1 32.4487 30.4507 31.8089 0.00165893 0.00948598 0.00764041 
95 1 32.5371 31.8555 31.9938 -0.00982927 -0.0223389 0.00338793 
82 1 31.2772 29.6939 31.5619 0.011342 -0.00567462 -0.0165089 
341 1 46.018 -8.43682 11.8167 -0.0262131 -0.0108386 0.00619614 
354 2 43.9456 -6.49668 11.2791 0.0315606 0.000214273 0.0209964 
353 2 45.1886 -8.86437 11.2446 -0.0302409 -0.0239746 0.0470972 
350 2 46.8087 -10.1034 11.3369 -0.0145197 -0.00648823 -0.0505358 
342 1 44.8814 -6.41564 11.964 0.0214816 0.0125963 -0.0125011 
357 2 44.4266 -4.62481 11.8753 0.0586181 -0.101206 -0.0224888 
327 1 46.7973 -6.59282 13.4719 -0.0141574 -0.0384193 -0.00928637 
333 1 46.1132 -7.0463 12.393 0.0214414 -0.00507603 -0.00229976 
455 1 50.3909 10.8683 25.5351 0.00434763 0.0116354 -0.00480052 
215 2 56.0069 -11.2744 14.521 0.0384829 -0.0274226 0.0304803 
328 1 48.3163 -6.38755 15.9775 0.00711465 0.0268794 -0.00492478 
326 1 48.6629 -7.2027 14.7675 -0.01409 -0.0166033 -0.00996657 
343 1 50.1005 -6.84722 17.5478 -0.03609 -0.0124306 -0.0229806 
355 2 50.601 -6.75065 18.523 -0.080654 0.0641183 -0.0455908 
325 1 47.6239 -7.55849 14.1039 0.00198018 0.0116186 -0.0173527 
332 1 49.7097 -8.12765 15.1903 0.0128177 -0.0162512 0.0241932 
340 1 50.1029 -7.97121 16.643 -0.0110901 0.0127877 0.0111379 
352 2 50.0145 -8.88271 17.518 -0.108379 0.0464301 -0.0232959 
351 2 50.5877 -9.581 15.094 0.0173214 0.0102017 0.000115057 
331 1 47.6444 -8.9599 13.2034 -0.0057995 0.00167309 0.0332478 
339 1 49.8728 -9.20213 14.162 -0.0268778 0.00797931 0.00187966 
214 2 50.7271 -11.5289 14.8846 -0.103388 -0.0300225 -0.0855116 
338 1 47.0255 -9.50674 12.1182 -0.00266503 0.00872871 0.0028657 
337 1 48.7403 -9.78817 13.5742 -0.00607994 0.0166405 -0.0042735 
216 2 53.2149 -11.2217 13.7535 -0.047171 -0.0501279 -0.0125504 
204 1 52.9183 -11.8219 14.575 -0.00171299 2.39263e-05 -0.0270472 
335 1 45.9508 -4.59832 13.5636 -0.00352412 -0.0114505 -0.00918703 
329 1 46.7538 -5.42855 14.2609 0.0225754 -0.00161823 0.00286744 
345 1 45.1622 -5.12692 12.4355 0.0172585 -0.0110404 -0.00585802 
442 1 49.8498 11.9419 23.2703 -0.0027122 0.000183692 -0.000166128 
346 1 45.5811 -3.31246 14.1671 0.00151565 -0.0128345 -0.016348 
348 1 46.9012 -3.26178 14.8814 -0.0254229 0.00897223 -0.0120278 
358 2 44.9687 -2.43488 14.0243 -0.0602024 -0.073486 -0.00287502 
336 1 47.3818 -4.18598 15.9437 -0.0172964 0.0210374 0.0122078 
330 1 47.3925 -5.50089 15.4453 0.0190874 -0.00107561 0.0132842 
360 2 47.7023 -2.44614 14.9542 0.0813189 -0.0315585 0.0631247 
334 1 49.1469 -5.87889 16.993 -0.0306689 0.0190638 -0.00835764 
344 1 48.6119 -4.64319 17.8595 0.0122683 0.0152232 0.00812669 
347 1 48.2729 -3.58242 16.8658 0.00110001 0.0144957 4.37296e-05 
359 2 48.6604 -2.43631 16.855 -0.0558231 -0.0303446 0.00505038 
356 2 49.2481 -4.32111 18.6709 -0.0794732 -0.0433238 -0.00936868 
464 2 50.132 9.89841 23.3541 0.0480501 0.0395077 0.027962 
452 1 50.0701 10.7341 24.1506 0.00358894 -0.00635083 -0.0183283 
467 2 50.4811 10.4123 26.6844 0.0686693 0.044611 0.101435 
349 2 48.5758 -10.8571 13.3484 0.0300097 -0.0350937 0.0109221 
463 2 48.7226 11.1913 21.3978 0.0202602 -0.0798386 0.0388683 
481 1 49.8332 19.0767 -11.093 -0.0187283 -0.00814304 -0.0030575 
501 2 51.4864 24.9735 -6.70483 0.036094 -0.00447492 -0.0539717 
478 1 46.6356 22.5513 -11.8858 0.0415475 -0.0439873 -0.0102661 
482 1 50.9871 19.7869 -8.73189 -0.0169171 0.0176706 0.0248254 
498 2 52.3768 23.0724 -6.69531 -0.0343259 0.0721363 -0.0246636 
474 1 48.2741 23.5073 -10.1394 0.001435 0.00709814 0.0123875 
471 1 49.464 22.143 -8.86985 -0.00423899 -0.00440783 0.00452423 
486 1 51.3681 22.9965 -7.14368 0.000456968 -0.0221098 0.0238882 
477 1 50.5692 22.0497 -8.05576 -0.0200047 -0.0111173 -0.0275467 
485 1 51.2526 20.9064 -7.70682 -2.23348e-05 -0.00649798 0.0189699 
472 1 47.5751 22.5433 -10.7711 -0.0434228 -0.0108031 -0.0445968 
469 1 49.4373 21.1659 -9.94558 -0.0191301 -0.0193388 0.00820312 
497 2 52.1528 20.6848 -7.21826 -0.0665151 0.00324648 0.0241305 
473 1 49.3251 23.4779 -9.13444 -0.0303568 -0.0118788 0.0206187 
494 2 51.6048 18.9278 -8.63857 -0.0967161 -0.0544991 0.102278 
475 1 50.3508 19.977 -9.925 -0.0144755 0.0150897 0.0192943 
470 1 48.4085 21.3434 -10.947 -0.0141303 0.0155882 -0.00655889 
493 2 49.4342 18.2173 -10.4739 -0.0454869 -0.0449587 0.115466 
491 1 46.8223 25.0284 -11.6804 0.0225889 0.00980979 0.0152825 
480 1 47.7008 24.7699 -10.5265 0.00616636 0.00943266 -0.00469989 
489 1 50.8551 24.284 -7.29337 -0.000425839 -0.0132753 0.0149441 
502 2 49.741 26.6181 -8.36835 -0.0174083 -0.0164194 0.0391246 
504 2 47.9039 26.9147 -9.82226 0.0663861 0.0111439 -0.00985344 
492 1 48.3326 25.8783 -9.89943 -0.00872125 0.00445104 -0.0129963 
490 1 49.3293 25.6662 -8.75785 -0.0179494 -0.00543617 -0.00826927 
479 1 49.595 24.4485 -8.12396 -0.00839219 0.00780803 -0.0173203 
191 1 51.5055 35.2747 16.4815 -0.0205851 -0.000335344 -0.0125651 
201 1 50.0795 34.742 16.8314 -0.00765318 -0.0150533 0.0282373 
185 1 52.8222 34.6127 16.8569 -0.0156798 0.00334739 -0.0343918 
213 2 49.4171 34.6295 15.935 0.0173372 -0.023297 -0.0283256 
203 1 55.4633 35.8034 14.6856 -0.029795 -0.0115802 0.00859557 
192 1 54.1392 35.3919 14.8465 -0.0241181 0.0106127 0.0132761 
186 1 54.1022 34.6932 16.2029 -0.0051627 0.00190302 -0.0236512 
200 1 56.4096 34.936 15.2234 -0.00802897 0.0227994 -0.0143705 
212 2 57.2191 35.521 15.5549 0.00857703 0.0817086 0.0456084 
199 1 57.3615 32.539 16.0998 -0.0292468 -0.021736 -0.00179133 
184 1 55.0997 33.6328 16.355 0.0109746 0.00331271 -0.000648201 
190 1 56.316 33.5381 15.7123 0.00223979 0.0287168 -0.0108321 
211 2 58.3216 32.5142 15.6407 -0.0241189 -0.0842966 -0.024134 
202 1 51.712 35.8959 15.2773 -0.00580266 0.021788 -0.0271481 
460 2 47.3499 13.6214 21.5087 0.0975346 0.0908847 -0.0883089 
483 1 49.2762 19.6374 35.5898 -0.00842901 -0.00549528 0.0169792 
488 1 46.3135 23.8347 35.8566 0.0104962 -0.00306527 -0.0172719 
451 1 49.0497 12.0585 22.0528 0.00903583 -0.0172843 0.0115939 
448 1 48.448 13.1728 21.2517 -0.00560631 -0.00616991 0.00783928 
436 1 50.633 13.2033 23.2177 0.0250248 0.000293131 0.000318333 
435 1 52.405 15.1905 23.9893 -0.0033615 -0.00319504 0.00714162 
434 1 50.5463 14.4601 22.4886 0.0305943 -0.0202835 -0.00368982 
433 1 51.8666 15.219 22.6666 0.0014759 0.00317679 -0.010795 
449 1 53.347 17.3513 23.1863 -0.0200468 0.0251823 0.0109822 
441 1 53.1656 16.2539 24.1323 -0.0100321 0.0112779 0.023293 
439 1 52.2193 16.1807 21.559 -0.00367415 0.00512973 -0.00799583 
446 1 52.8699 17.431 21.818 0.0125013 -0.0375596 -0.00644341 
440 1 49.7739 14.1016 21.3324 -0.00805353 -0.0326541 -0.00634392 
445 1 51.3502 15.7536 20.3869 0.0249057 -0.0059999 -0.0170905 
447 1 50.2881 14.8884 20.1617 -0.00771057 -0.0158179 -0.0137163 
458 2 53.121 17.8499 20.8827 -0.0184074 0.0124841 0.0347122 
459 2 50.2274 14.4089 19.1774 0.0975418 0.00485308 -0.0729252 
461 2 54.055 18.1865 23.1312 0.0137298 0.00290167 0.0950374 
457 2 51.3264 16.7491 19.7836 -0.00760313 -0.0393522 -0.0467821 
205 2 54.6175 31.8215 21.4352 0.00580683 -0.062264 -0.0432825 
206 2 52.4889 30.9133 20.6352 -0.00387322 0.0171584 -0.0162767 
210 2 49.9258 32.6958 17.8844 0.0205481 0.0426598 -0.0551125 
194 1 52.5143 31.8514 20.0119 0.0123599 -0.00397804 -0.0143439 
209 2 50.757 31.3549 18.5342 -0.100158 0.00978229 0.018656 
197 1 51.5738 32.0014 18.8199 -0.000246019 0.00904922 0.00638662 
198 1 50.3578 33.7795 17.9001 0.0152947 -0.0193249 0.0273126 
189 1 51.7055 33.4199 18.467 -0.0272849 0.00576476 -0.0116302 
187 1 53.612 32.5241 19.7666 -0.0162701 0.0235281 -0.0220844 
183 1 52.7858 34.0839 18.2024 -0.0246157 0.008754 -0.00925874 
195 1 56.1384 31.7563 19.6897 0.00778028 0.0216747 0.0236449 
207 2 57.1078 31.3766 20.2496 -0.0308501 -0.03388 0.0293249 
208 2 57.9771 30.9053 17.1508 0.00530072 0.0621055 -0.00181943 
193 1 54.9343 32.0808 20.3716 0.0134178 0.0115282 -0.0247675 
188 1 56.0289 32.0301 18.3395 -0.00186414 0.00994652 -0.00590257 
196 1 57.0509 31.6817 17.2215 -0.0111987 -0.0112919 -0.0254753 
182 1 55.1523 33.0142 17.8564 0.00137916 -0.0278935 -0.0192309 
181 1 54.0576 33.5026 18.7031 -0.00876623 0.0213295 0.00700889 
444 1 50.8845 12.1645 25.8554 0.00699579 0.0100388 0.0276653 
456 1 51.1345 12.5538 27.1805 -0.0016517 0.00186404 -0.00652193 
466 2 52.3668 13.559 28.2173 0.00929992 0.0513059 -0.0369804 
438 1 50.9616 13.1873 24.6646 0.000829319 0.00117757 0.0139653 
437 1 52.0389 14.0159 24.9173 0.0138677 0.00155249 0.0334322 
443 1 52.7979 14.0494 26.1261 0.0324908 -0.0284643 0.0268579 
454 1 52.1312 13.4809 27.3018 0.0048767 0.00792769 -0.00887755 
450 1 54.0539 16.1573 25.3164 -0.0167882 0.0382501 0.0118053 
453 1 53.6725 15.255 26.2146 0.00236222 0.0142674 0.00759658 
462 2 54.9564 16.7895 25.6247 0.0151441 0.104892 -0.0372948 
465 2 54.5915 15.5278 27.0434 0.00590623 -0.0210564 0.0095038 
499 2 45.0994 21.1613 35.2324 0.0230063 0.14945 0.0413512 
487 1 46.097 21.3909 35.4951 0.0110347 -0.0164546 0.0228657 
496 2 46.2501 19.5968 34.9112 -0.00758276 -0.0945779 0.112052 
484 1 46.7782 20.2957 35.2246 0.00622393 -0.000256278 0.0251223 
495 2 48.9457 19.3613 34.7127 0.00988416 -0.0547492 -0.0519914 
476 1 48.0483 20.4977 35.9853 -0.00840172 -0.00959593 0.0125886 
500 2 45.494 23.9399 35.2449 -0.0849426 -0.0196262 0.116303 
503 2 46.1247 25.8562 36.0508 0.0439902 0.0645415 0.0777994 
468 2 51.1693 12.2024 28.2067 0.0107955 -0.0376413 0.0720496 
180 2 69.7182 -9.93578 18.4216 -0.024951 -0.101352 -0.0491364 