ITEM: TIMESTEP
430000
ITEM: NUMBER OF ATOMS
576
ITEM: BOX BOUNDS pp pp pp
-1.2000000000000000e+01 8.4000000000000000e+01
-1.2000000000000000e+01 3.6000000000000000e+01
-1.2000000000000000e+01 3.6000000000000000e+01
ITEM: ATOMS id type x y z vx vy vz 
12 1 4.41485 -2.55121 -11.3201 -0.0155918 -0.00513617 0.00778955 
135 2 -11.9299 -3.00437 -11.4545 0.00812093 -0.0523129 0.0059334 
28 2 3.32341 -0.30999 -5.55898 0.0303873 -0.0638045 -0.0576297 
16 1 3.41083 -0.967584 -6.49805 0.00205965 0.00523644 -0.012694 
19 1 2.89924 -0.778919 -7.69141 0.00480202 0.013007 0.00982251 
31 2 2.13981 -0.121511 -7.92777 0.00486336 -0.0405409 0.0059607 
10 1 3.49711 -1.62708 -8.65857 -0.00216465 -0.0428624 -0.00738486 
8 1 4.53309 -1.83002 -6.4557 0.00274428 -0.0204392 0.0231713 
4 1 4.72619 -2.60038 -8.83477 0.000287552 0.0214946 0.0154597 
20 1 2.59628 -1.9603 -9.74069 -0.0333997 -0.00678621 0.0199538 
2 1 5.30581 -2.77606 -7.51266 0.00930321 -0.025186 0.0213602 
32 2 1.55464 -1.50841 -9.48709 -0.0788019 -0.00724444 -0.0314439 
23 1 3.10998 -1.88221 -11.0588 6.95808e-06 0.019568 0.00656449 
393 2 -2.93669 -7.98669 -1.36743 0.0610899 0.03646 0.003168 
30 2 10.6047 -2.61475 -9.66118 -0.0472766 -0.00973938 0.00800165 
6 1 5.16595 -2.93631 -10.1631 0.00582423 0.00732826 0.0127469 
1 1 6.6836 -2.56827 -7.82571 -0.0176206 -0.0263711 0.0147118 
3 1 7.3483 -3.46051 -8.69278 -0.0281319 -0.00466308 -0.0120031 
7 1 7.30305 -2.44847 -6.44696 -0.00827986 0.00138203 0.0130637 
9 1 8.71573 -3.06583 -8.52303 -0.0176899 -0.0131007 0.0169008 
5 1 6.58479 -3.28747 -9.90191 -0.0257951 0.00678953 0.0204802 
18 1 9.47768 -2.91413 -9.82067 -0.00358091 -0.000184217 0.0118657 
14 1 8.6467 -2.63482 -5.94141 -0.0127166 -0.0137889 0.0332399 
17 1 9.58302 -3.20305 -7.11814 0.00233029 -0.0137435 -0.00719471 
29 2 9.38849 -4.15707 -6.43779 0.0288231 0.0239585 0.00508149 
21 1 8.72037 -2.75243 -10.9687 0.00149269 0.00294265 0.00233389 
11 1 7.30232 -2.65409 -11.1504 0.0142575 -0.0295597 0.00729297 
26 2 8.91404 -2.44547 -4.96376 -0.0636859 -0.0737089 -0.0752415 
495 2 0.0854557 -8.2595 -2.39681 -0.0563828 0.014595 -0.0161599 
390 2 -3.91666 -6.25617 -3.58661 -0.0275861 0.0846621 -0.047728 
371 1 -1.90285 -6.17726 -2.2157 0.0341612 -0.00700806 0.00137988 
369 1 0.377648 -6.80599 -1.03665 0.00959403 0.0172177 0.0166844 
378 1 -0.617488 -7.86968 -1.64454 0.0171382 -0.002347 -0.0181976 
381 1 -2.07183 -7.36229 -1.46328 0.00186471 -0.00426354 -0.0209226 
389 2 1.82694 -7.18143 0.91835 -0.00773186 -0.00852589 -0.0391359 
374 1 2.56694 -6.15442 -0.585787 0.000148505 0.0160499 0.00438043 
386 2 3.37927 -6.36753 0.20299 0.0022146 -0.0513131 -0.00334228 
377 1 1.40042 -6.7893 -0.042028 0.0185523 0.0134726 -0.0192625 
365 1 -0.771432 -5.26263 -2.52603 0.0118009 -0.019645 -0.0105057 
396 2 -4.12756 -4.12272 -4.73655 -0.0195803 0.0324011 -0.0490003 
392 2 -1.47221 -0.822364 -4.91635 0.066524 0.0652985 0.020712 
380 1 -1.14613 -1.85995 -5.10461 0.0322945 0.00441908 -0.0273639 
370 1 0.0446179 -2.08456 -4.23828 -0.0158221 -0.0218589 -0.00766749 
379 1 1.04882 -1.23491 -4.41425 0.0393066 0.0311904 -0.0098169 
391 2 0.943017 -0.10897 -4.86138 -0.00490069 -0.0108902 0.151086 
364 1 0.182355 -3.43686 -3.63354 0.00866966 -0.00814692 -0.00146058 
366 1 -0.839957 -4.12904 -3.50373 -0.00320167 0.0123496 -0.00938353 
395 2 -2.24153 -2.41938 -6.51846 0.0209044 -0.0212842 0.00412608 
384 1 -3.25838 -4.51051 -4.2104 0.0132935 -0.015602 -0.0341105 
372 1 -2.02677 -3.85773 -4.51148 -0.0168893 -0.000784279 0.0097806 
383 1 -1.75226 -2.99945 -5.65854 0.00111432 7.45575e-05 0.0013322 
363 1 0.384205 -5.48712 -1.7007 -0.0116412 -0.00620061 0.00395254 
382 1 -2.92238 -5.63787 -3.35091 0.0159477 0.0123793 -0.0230429 
15 1 5.33177 -1.62652 -5.13214 0.0147613 0.0185012 -0.011735 
362 1 1.28321 -3.64522 -2.66858 0.0219985 0.00557278 0.0127956 
361 1 1.66143 -4.66073 -1.8687 0.00889947 -0.0108071 -0.00761114 
27 2 5.45633 -0.715972 -5.22151 0.0921737 -0.093247 -0.0253816 
376 1 2.24311 -1.68495 -3.71857 0.00513989 -0.0329193 -0.0034941 
388 2 3.24661 -1.10728 -4.13312 -0.0548783 -0.0123755 0.0746336 
368 1 2.41601 -2.68112 -2.71757 -0.00135851 0.00612423 -0.0215975 
367 1 2.90122 -5.36997 -1.74097 -0.0051417 -0.00385885 0.0211821 
373 1 4.13144 -4.34099 -1.90388 0.0134769 0.00903809 0.000167283 
387 2 4.33027 -2.29476 -2.57499 -0.0146626 -0.0155983 -0.0319928 
375 1 3.87267 -3.03088 -2.22317 0.0148792 -0.00161938 -0.00348298 
385 2 5.05669 -4.74711 -1.37415 -0.0185575 -0.0140643 0.0545939 
13 1 6.19657 -2.87433 -5.6066 -0.0252108 0.0116866 -0.0195105 
25 2 5.90573 -3.3541 -4.66993 0.0218286 0.0401362 0.0669677 
282 2 -11.0726 -3.23615 -11.4757 -0.00283695 0.036706 -0.0348094 
35 2 2.14289 -1.91225 -11.7368 -0.00109292 0.133509 -0.0556442 
33 2 9.32437 -2.66097 -11.8863 -0.05167 -0.021373 -0.0718478 
36 2 4.67768 -2.85032 34.4943 -0.0506876 0.00108203 -0.0302455 
34 2 6.91173 -1.96565 34.7792 -0.0648613 0.000838825 -0.04906 
22 1 6.57184 -2.46116 35.7443 0.00612843 0.0375761 -0.0165998 
24 1 5.19369 -2.55642 35.4027 -0.0215572 -0.0135859 0.0108996 
129 1 10.6774 17.0316 -8.6788 0.0214682 0.0179964 -0.0111575 
141 2 9.90482 17.838 -9.30955 -0.0826051 -0.0770547 -0.0661744 
119 1 10.1938 16.6267 -7.19533 0.0102773 -0.00183849 -0.00590925 
113 1 11.0065 15.8303 -6.32146 0.00577994 0.0195478 0.0144905 
130 1 8.80531 16.9776 -6.82761 -0.00449208 0.0178128 0.0105776 
142 2 8.4474 17.9257 -6.94818 0.087484 0.0212733 0.0112638 
144 2 7.27546 15.4556 -6.92116 -0.144554 -0.0146741 0.085838 
132 1 8.21233 15.7424 -6.2941 0.0370577 -0.01202 -0.00898051 
211 2 11.7377 29.5139 5.41762 -0.0163661 0.0751118 -0.0215599 
468 2 -6.2082 19.4689 -7.3956 -0.00377951 0.0185032 -0.0187703 
456 1 -5.40186 20.0036 -7.42281 -0.0055951 0.00268035 -0.0107043 
467 2 -5.71063 21.057 -10.6199 -0.0269588 -0.00819659 0.0202724 
444 1 -5.12922 21.2422 -8.27571 0.00123973 0.0042791 0.00105135 
455 1 -5.28911 21.4183 -9.62987 0.0115823 -0.000104566 0.00762728 
438 1 -4.53627 22.2626 -7.38144 0.002963 0.00131356 -0.0157296 
452 1 -4.58287 22.614 -9.98956 -0.013906 -0.0165416 -0.0209486 
454 1 -4.38586 19.8143 -6.50359 7.86866e-05 -0.0226757 0.0041918 
451 1 -2.35679 27.7717 -7.5367 -0.0050208 0.021619 -0.00655432 
460 2 -1.20338 27.8151 -7.91751 0.0770113 -0.0713268 0.00427056 
463 2 -2.89664 28.6654 -7.62849 0.00568476 -0.0341785 0.056536 
442 1 -4.04828 23.7788 -9.12193 -0.00411772 -0.00450177 -0.00579184 
464 2 -3.6142 24.7134 -9.28935 0.124033 -0.107541 0.0478207 
436 1 -4.30846 23.6062 -7.70999 -0.00968903 0.0023069 -0.00727785 
448 1 -3.30914 26.659 -7.26833 0.01983 -0.0142462 0.0146107 
440 1 -4.56815 26.1249 -6.90968 -0.0112514 -0.0027639 0.00317077 
140 2 8.69056 12.4613 -2.83075 0.0599722 0.0282937 -0.0157352 
128 1 9.26383 13.1669 -3.52761 0.0355383 0.00584156 -0.0229369 
118 1 10.6592 13.7834 -3.28024 0.00119237 -0.0186403 0.0150632 
143 2 7.32724 13.286 -4.09719 -0.0953588 -0.0459021 0.00584398 
131 1 8.31933 13.6782 -4.4292 0.0128238 0.0214145 -0.0067778 
112 1 11.2438 14.52 -4.46388 -0.00291592 0.012933 0.0311375 
120 1 8.89767 14.6877 -5.30872 -0.0332528 -0.0231581 0.0107255 
114 1 10.3128 14.8392 -5.45224 0.00391365 0.00430024 -0.0124138 
139 2 10.6266 13.565 -1.32878 0.0414035 -0.0259919 -0.0772068 
127 1 11.4147 13.6837 -2.03022 0.0045124 -0.0042253 -0.0193969 
462 2 -4.14098 21.8307 -1.83606 0.0614475 0.0375042 -0.0569911 
450 1 -4.34566 21.7469 -2.96254 0.0306856 0.00772883 -0.00695931 
461 2 -4.22716 23.7262 -1.74716 -0.0431689 0.0515685 0.074096 
466 2 -4.19284 18.8595 -6.02467 -0.0623999 -0.00924002 0.0265485 
465 2 -4.77692 19.5401 -3.71902 -0.0496419 -0.110497 -0.0236018 
453 1 -4.47207 20.6761 -3.8143 -0.0163476 0.0104907 0.00226414 
441 1 -4.26595 23.269 -3.65237 0.0225416 0.0142726 0.0312927 
443 1 -4.27794 20.9218 -5.34941 0.00751554 -0.0111206 0.0100081 
437 1 -4.08068 22.1896 -5.91466 -0.02235 0.00668209 0.00697203 
449 1 -4.43773 24.1724 -2.69717 -0.00184746 -0.0170969 -0.0372994 
435 1 -4.59838 23.4088 -4.9384 -0.00249736 0.0146031 -0.0188383 
439 1 -4.92659 25.9388 -4.46373 -0.00821325 -0.0155575 0.00408587 
445 1 -5.97177 26.9608 -4.87629 -0.00246325 0.000723119 -0.0192138 
458 2 -4.30839 26.3116 -2.32249 -0.0824368 -0.0259717 -0.0573355 
457 2 -6.64303 27.3242 -4.0583 -0.041073 -0.000131902 0.0417824 
446 1 -4.64636 25.5159 -3.04072 0.0119516 -0.0122354 -0.0178177 
459 2 -6.02523 28.0107 -6.9048 -0.0739792 -0.0749844 0.0224025 
434 1 -4.43621 24.7054 -6.66761 0.0101106 -0.00336722 -0.0176729 
433 1 -4.92352 24.5599 -5.33363 0.0186047 0.013013 -0.0218086 
447 1 -5.42481 27.2279 -6.11854 -0.0171974 -0.0176476 -0.0184235 
200 1 10.8766 31.9749 3.41 0.00867181 0.0246287 0.00180059 
203 1 10.6641 32.8611 2.34824 -0.0223702 -0.0237561 -0.0100381 
215 2 10.2048 33.7547 2.37975 0.0839012 -0.0151485 0.042704 
212 2 9.99263 31.3015 4.15049 0.0643958 0.0158477 0.00341655 
204 1 11.5457 33.7257 -0.0820145 -0.00697035 -0.0315044 0.019642 
192 1 11.7724 32.8373 1.28451 -0.00625647 -0.013077 -0.00471 
126 1 11.9362 16.5258 -9.14486 -0.0231402 0.000286952 -0.0173218 
138 2 11.7663 16.1162 -10.0949 -0.0162998 0.103921 -0.0175644 
190 1 11.8765 31.0351 3.51391 -0.00677553 0.00130411 0.00245583 
237 1 10.5049 32.6535 16.8414 -0.0328978 0.0318937 -0.00728014 
251 2 8.04706 33.3557 22.738 0.0867679 -0.0828072 -0.052206 
248 2 9.77696 32.0794 24.0259 -0.081992 0.00303664 0.0938481 
220 1 10.961 30.9258 21.1526 0.00553325 -0.00705535 -0.0222923 
250 2 9.18196 34.169 17.7436 0.0462394 -0.00882639 0.0425325 
226 1 10.5666 30.8712 22.6111 -0.0154445 -0.00342417 -0.00353651 
236 1 9.75341 31.896 22.9602 -0.0226212 0.0413174 -0.0280768 
239 1 8.70506 32.6869 22.1312 0.00246778 0.00500521 -0.00371972 
221 1 10.8191 31.8768 19.0718 0.00390394 -0.0144116 0.0192639 
240 1 8.58386 33.4531 19.7036 -0.000312038 0.00477605 0.0192699 
227 1 10.4169 32.7446 18.3439 -0.00422663 0.000304099 0.0261381 
238 1 9.39825 33.5028 18.5526 -0.0132199 0.00055361 0.00210618 
252 2 7.66043 34.0512 19.3141 0.0356193 0.0377841 -0.043241 
228 1 9.32034 32.7856 20.8783 -0.0506914 -0.0111922 0.00758686 
222 1 10.3562 31.7423 20.4265 -0.0115443 0.00723272 0.0264447 
249 2 9.82913 33.2169 16.177 0.0637596 0.0294838 -0.0639269 
219 1 11.9319 31.3766 18.4764 0.0261331 0.023663 0.00824364 
235 1 11.523 30.7945 23.5887 -0.00125086 0.00139193 0.00564535 
247 2 11.0291 31.1175 24.6663 0.0268062 -0.04982 0.0212605 
234 1 11.9448 32.4246 16.5579 -0.0037859 -0.0215108 -0.0174015 
529 2 17.3445 9.97821 11.7923 0.0262215 0.00904758 -0.00505143 
530 2 17.9871 11.9216 10.0061 0.0629598 0.0429155 -0.00594315 
517 1 17.2306 10.8622 12.4078 0.0480364 0.0177093 0.000790083 
520 1 17.9729 11.4083 15.9224 0.00209695 0.0249457 0.03227 
558 1 30.1546 -3.16751 32.5917 -0.00364528 0.00622568 -0.036406 
557 1 31.4716 -4.97326 31.4157 0.0106649 -0.00604667 0.00381393 
532 2 18.2097 10.5011 15.8475 0.134643 -0.0264713 -0.0458162 
519 1 17.7274 11.0021 13.6904 -0.0146244 0.0062885 0.0279661 
531 2 17.7222 10.0438 14.0688 -0.00467934 -0.00922764 -0.0212834 
71 2 29.5436 1.51764 21.7109 0.122636 -0.156006 -0.0526213 
504 2 29.3909 1.99208 22.5991 -0.0175889 0.0147945 0.0767339 
572 2 24.1134 -6.73692 29.7247 0.0223231 0.0573225 0.0158538 
560 1 24.7836 -6.12958 29.1388 -0.00951858 0.0183523 0.00604919 
550 1 25.872 -7.02824 29.4738 -0.0380577 0.00839367 -0.0195192 
544 1 26.8576 -6.27033 30.1234 0.0134554 -0.00274277 0.00484869 
556 1 26.6402 -9.17871 29.6895 0.0231139 0.0128519 0.0223715 
571 2 24.6578 -9.05943 28.8651 0.0264859 -0.0459401 -0.13635 
559 1 25.5563 -8.49073 29.2705 0.010142 0.00361341 0.0110878 
568 2 25.8726 -10.1272 29.8958 0.027711 -0.0265466 -0.00649668 
575 2 24.3781 -3.96185 28.8187 0.0987856 -0.000952366 -0.0524835 
563 1 25.0086 -4.75266 29.2596 0.024015 0.00125422 -0.0207569 
552 1 26.1955 -4.03191 29.7081 -0.00195109 0.00512135 0.0184597 
545 1 27.7343 -4.2725 31.1003 0.00430816 -0.00826286 0.0159636 
576 2 25.2348 -1.97589 29.8509 -0.0150964 0.0375901 0.0800682 
562 1 27.0834 -1.82443 30.7737 0.0157554 0.00845678 0.0343027 
564 1 25.9862 -2.66347 30.1655 0.0155346 0.00369773 -0.0160959 
574 2 27.4913 -1.1589 30.0825 -0.0189216 0.0433424 0.0471634 
542 1 28.0799 -7.031 30.2293 0.0217945 0.0175849 0.0311967 
548 1 27.7364 -8.46348 30.4 0.00239245 0.0176745 -0.0108487 
541 1 29.2009 -6.25958 30.6572 -0.00138585 0.011452 0.00949591 
555 1 28.6023 -9.06289 31.3687 0.00133853 -0.0180935 -0.0116696 
567 2 28.4458 -10.1214 31.4279 -0.0313537 0.0123464 -0.00432656 
553 1 30.0801 -8.45301 31.5669 -0.000476996 -0.00918575 0.0208075 
547 1 30.3301 -7.08001 31.4467 -0.0193362 -0.00405617 -0.0133708 
566 2 32.9122 -6.88426 31.4771 0.104598 0.110635 -0.00648004 
565 2 31.0974 -8.84231 32.162 0.0264313 -0.0401926 0.0183847 
554 1 31.53 -6.41842 31.4893 -0.0183736 0.0103959 -0.0144947 
546 1 26.9778 -4.97784 30.3005 -0.00949411 0.00154896 0.0280259 
551 1 27.9259 -2.85975 31.3606 -0.00557417 0.011292 0.0292835 
573 2 28.078 -1.83657 33.1613 -0.11407 -0.00354448 0.0699579 
561 1 28.8392 -2.66162 32.6294 -0.0246889 -0.006807 0.00620219 
543 1 28.8219 -5.02054 31.2033 0.0260099 -0.0129701 0.00728778 
549 1 30.1898 -4.2472 31.6204 -0.0237578 -0.000219283 -0.0154831 
569 2 31.668 -4.53217 30.3406 -0.0677807 -0.0230346 -0.0572646 
570 2 30.917 -2.58102 32.8281 -0.0511185 -0.0785818 0.0327345 
137 2 14.3584 15.6746 -9.66321 0.0128979 -0.0518451 0.0235757 
125 1 14.0284 15.6922 -8.57684 0.00484533 -0.0136585 -0.00999935 
122 1 14.7993 15.3978 -7.52515 -0.00517052 0.0131044 0.0170394 
117 1 12.8222 16.0569 -8.11226 -0.01706 0.021727 0.00954484 
134 2 15.9528 15.1637 -7.69703 -0.0015488 -0.0556274 -0.0288188 
111 1 12.4272 15.4995 -6.67432 -0.00944941 -0.00754661 -0.0102417 
489 1 29.3867 17.4905 10.5735 -0.00531381 0.00157118 -0.0249001 
109 1 13.0684 14.9131 -5.68666 0.00886983 0.00644951 -0.0281643 
115 1 14.5127 15.0408 -6.07019 0.0114274 -0.0206782 -0.0179533 
123 1 14.6502 15.1306 -3.56793 0.0128035 -0.0115793 0.0209287 
121 1 15.1487 15.608 -4.85605 0.0200994 -0.0296424 -0.00853295 
133 2 15.8653 16.5086 -4.76969 -0.0355651 -0.0658234 0.0906578 
116 1 13.3533 14.3985 -3.35167 0.00170728 -0.00902654 0.00417876 
136 2 13.2638 14.372 -1.41801 -0.018054 -0.0747825 0.0567372 
110 1 12.4686 14.71 -4.37646 -0.00411111 0.0043283 0.0220843 
124 1 12.7519 13.9193 -2.12168 0.00312455 -0.0245387 0.0281078 
493 2 27.9957 18.6344 -1.14961 0.0191915 -0.00719373 -0.02592 
481 1 27.8271 18.5646 -0.131347 -0.0249139 0.0126895 -0.0376272 
108 2 27.3202 20.5751 -1.00553 0.0349646 0.0600225 -0.0559523 
209 2 18.2222 31.2172 -0.658219 -0.0107963 0.0351813 -0.00795132 
197 1 17.1168 30.8583 -0.412583 0.000525038 0.024493 -0.00873498 
194 1 16.9573 29.5648 0.342281 -0.00252896 0.0135457 -0.00200424 
206 2 17.4903 28.7884 -0.122299 -0.0724599 0.145685 0.0234384 
189 1 15.9241 31.4726 -0.626316 -0.000249164 0.016653 0.0322998 
198 1 15.0184 32.8531 -1.3558 -0.00570618 -0.00951192 -0.0105544 
201 1 15.3736 33.8346 -2.20927 -0.0131948 0.020502 0.020236 
191 1 13.7414 33.0452 -0.773011 0.0084299 0.0153952 -0.0129896 
214 2 12.258 34.3515 -2.04552 -0.0256236 0.0923299 0.0408743 
202 1 12.4458 33.9813 -1.02616 0.00944 0.00114115 -0.00539731 
525 1 18.4206 17.3045 11.8367 0.00148436 -0.0275687 -0.011129 
213 2 15.3318 34.8409 -2.39946 -0.0426379 0.0220982 -0.0151297 
499 2 25.3482 15.328 4.61727 0.066894 -0.0215552 -0.10057 
484 1 26.0236 16.0042 2.37025 0.00295184 0.00743149 -0.0118857 
496 2 25.3914 15.3968 1.53635 0.0794951 0.0156534 0.0675269 
483 1 26.921 17.6728 0.51915 0.0151485 0.0301622 0.0221006 
476 1 27.0895 17.07 1.93674 0.014238 0.00653059 -0.00383247 
470 1 27.243 18.2642 2.69632 0.00681644 0.0207791 -0.0042588 
472 1 27.76 17.3115 4.05117 0.00730535 0.00329103 0.0146416 
487 1 25.9224 15.8499 3.60936 0.0086455 -0.00300911 0.0112201 
478 1 26.5376 16.7127 4.63991 -0.00220087 0.0081086 -0.00333023 
473 1 28.7695 17.6002 4.64462 -0.00461709 -0.00637302 -0.0113617 
503 2 25.9323 17.2217 5.40822 -0.013042 -0.0415877 -0.00310931 
500 2 23.3925 22.379 2.84259 0.0492496 -0.00194777 0.0780622 
475 1 27.5596 19.796 0.647397 -0.0068909 -0.0106746 -0.0106862 
469 1 27.6817 19.6537 1.97106 0.00252271 0.0131427 -0.00767347 
497 2 28.5415 20.8163 4.53559 -0.0567604 -0.0466089 0.0266682 
482 1 26.8547 20.9471 0.0138803 0.018886 -0.0059355 0.00268389 
477 1 26.6505 22.2095 1.93852 -0.00478922 0.016265 0.00634561 
471 1 27.4461 21.0456 2.64385 0.00837167 -0.00718652 -0.00421786 
485 1 26.9145 22.2877 0.387095 -0.000311777 0.00369464 -0.00866504 
494 2 27.1085 23.46 0.26396 0.020659 0.0516597 0.0211903 
479 1 27.9253 21.3734 3.80981 -0.00355927 0.0274326 -0.00439003 
491 1 24.2239 21.7559 3.10717 0.00348047 -0.0203052 -0.00814832 
488 1 25.3419 21.9672 2.51958 0.00995856 -0.0116876 0.0090059 
501 2 27.5581 22.1864 4.10501 -0.00166111 0.0330939 0.0214291 
187 1 16.3886 29.3223 1.67484 -0.000464732 -0.0179884 -0.0141944 
193 1 16.0349 28.177 2.81288 -0.0151947 -0.000235873 -0.00454079 
205 2 16.7769 27.3493 2.64241 -0.0277589 0.106252 0.0905948 
195 1 14.8453 27.8313 3.25373 -0.00596921 0.00774621 0.0141771 
207 2 14.6201 26.8452 3.85341 0.0416049 -0.0299177 -0.0446404 
188 1 14.0648 29.2911 3.53237 0.00354236 -0.00511681 -0.00287067 
208 2 14.5024 30.4817 5.49581 -0.094475 -0.0130911 -0.0111343 
196 1 13.7406 30.0049 4.84022 -0.00251427 -0.0064869 -0.00209748 
498 2 23.8017 20.8835 2.57179 -0.0509312 -0.0758299 0.142554 
183 1 15.1365 31.4428 0.350816 -0.000418741 -0.0176239 0.0174227 
185 1 14.1059 32.2479 0.3966 -0.0125049 -0.00208774 0.000965874 
492 1 30.3886 17.5519 9.42825 -0.00126252 -0.0014538 0.0051375 
181 1 15.1924 30.1857 1.46014 0.00953272 -0.0100682 0.00222009 
186 1 13.1293 32.3741 1.551 -0.00675275 -0.0267132 -0.00726442 
184 1 13.1783 31.3733 2.66483 -0.00586818 0.0157581 0.0114744 
182 1 14.2797 30.2876 2.50274 -0.00780486 -0.000876428 0.0198321 
199 1 12.3619 30.1497 4.70492 -0.0135847 -0.0060256 0.0138684 
502 2 31.0943 17.1033 10.2231 -0.0179948 -0.0198469 0.0463863 
534 2 19.1188 16.4584 9.89087 0.0126368 0.0688993 -0.00544374 
533 2 18.752 13.9319 9.3693 -0.0107324 -0.0125225 -0.0290715 
521 1 18.6294 13.7611 10.3968 0.00531086 0.0253415 -0.0126489 
518 1 17.9774 12.6255 10.8238 0.00651293 -0.0330192 0.0234555 
486 1 28.9797 17.5178 11.7595 -0.0333865 0.00307342 0.023758 
490 1 30.1283 17.3557 8.12581 -0.000869507 0.027217 -0.0303788 
513 1 18.3404 14.9658 11.2579 -0.0103365 -0.0254239 -0.0166693 
522 1 18.7647 16.4467 10.9461 0.000149438 0.00388194 0.00228687 
480 1 29.9388 17.2561 6.94962 -0.000871193 0.00349988 -0.00777969 
474 1 29.4978 17.3864 5.81577 0.0030848 -0.00513612 0.00354102 
511 1 17.433 12.3279 11.9886 0.011449 0.0036588 -0.0102542 
527 1 17.9356 15.995 17.037 -0.00940456 0.0208731 0.018953 
515 1 17.5702 17.0271 13.3063 0.0230456 -0.000222326 -0.015082 
509 1 17.2935 15.6173 13.3705 0.0125984 0.0120405 0.00427662 
526 1 17.0656 18.1543 13.9944 0.0105008 -0.0022332 -0.00382233 
528 1 16.7443 17.931 15.4745 0.00106138 -0.0112015 0.0282085 
510 1 17.1191 15.3596 14.8371 0.00694974 0.00708699 -0.0185647 
516 1 17.1776 16.5546 15.6619 0.0153869 0.00845177 0.0157331 
508 1 17.5176 14.158 15.2835 -0.00743397 0.00430088 0.0124763 
506 1 17.5877 13.445 14.1731 -0.00478362 -0.0149705 -0.00813652 
507 1 17.858 14.6298 12.4513 0.000245598 0.0086746 -0.0167273 
524 1 17.59 14.7268 17.667 0.0169377 -0.000326614 -0.00658726 
505 1 17.2303 13.4579 12.8269 0.00193739 0.00265113 -0.00280664 
514 1 17.6469 13.4944 16.6893 0.0117023 0.0119349 0.0116447 
246 2 12.5332 32.8101 15.8063 -0.00382408 0.0343692 -0.0276999 
538 2 16.7845 19.1725 13.3873 -0.00646313 -0.0548709 -0.0654987 
233 1 13.8837 30.5462 16.7833 0.0275643 0.016315 -0.0159571 
230 1 14.3578 29.6726 17.8149 0.0142797 0.000161327 0.00223153 
242 2 14.6195 28.8136 17.1901 -0.119173 0.115146 0.0262211 
245 2 14.2009 30.6995 15.6111 0.0313046 -0.0938292 -0.0016513 
225 1 12.6785 31.4489 17.3052 -0.0034098 -0.00834837 -0.0220191 
535 2 18.2887 12.178 18.231 0.00084452 -0.04633 -0.0263941 
536 2 18.0207 14.1548 18.4801 -0.0451236 0.0442133 -0.116088 
539 2 16.023 24.8783 20.5687 0.00515328 -0.0150577 -0.00650891 
179 2 16.3277 24.9314 21.4623 0.0091265 -0.0322881 -0.0335141 
241 2 15.836 28.7829 20.4932 -0.00705464 -0.0677609 -0.0135467 
229 1 14.7639 29.3402 20.5049 -0.00851621 -0.00228178 -0.00199129 
223 1 14.0462 30.0629 19.283 0.0188712 0.00785101 -0.0245728 
231 1 14.4441 29.1141 21.7632 -0.0208533 0.019363 0.0171107 
224 1 13.1565 29.9645 21.9031 0.00125774 -0.0188974 0.0154595 
243 2 14.8752 28.2954 22.7012 0.0752943 0.0270501 0.05629 
232 1 12.8384 30.338 23.2348 -0.00981349 0.00413741 0.00387842 
244 2 13.5693 29.908 23.9608 0.0296467 -0.08098 -0.0721243 
218 1 12.2779 30.6347 20.8739 0.0112175 -0.00119759 -0.01367 
217 1 12.9012 30.8648 19.5293 0.00962293 0.0171477 0.000819477 
105 2 23.1688 12.3512 24.367 0.0539511 -0.0162365 -0.0251562 
421 2 32.7251 24.9399 21.111 -0.136979 -0.0106928 -0.0833735 
523 1 18.0352 12.1641 17.0937 0.0179843 0.00154804 0.0148749 
512 1 17.7385 12.1351 14.6522 -0.000196419 0.0151419 0.014264 
281 2 50.907 8.07747 -6.57535 0.0130744 0.00218506 -0.0606766 
319 2 58.5024 -11.3586 5.17941 0.0747632 0.133156 -0.00701363 
49 1 46.3271 -7.71143 -11.1063 -0.0251173 -0.0118176 -0.0198744 
61 2 47.2277 -8.44812 -11.0442 0.0863082 0.0615009 0.171242 
307 1 59.5085 -11.2316 5.56745 0.00861437 -0.0128864 -0.0156586 
316 2 59.2095 -9.64616 6.84954 0.0423742 0.0722786 -0.00208814 
37 1 44.5803 -6.24378 -10.7344 -0.00897714 -0.0147854 0.0205422 
43 1 45.5879 -6.97589 -10.0707 0.00747238 0.026767 -0.00152437 
50 1 45.9516 -6.45407 -8.62551 -0.0148898 -0.00645323 -0.0372023 
62 2 45.9145 -7.12692 -7.67917 0.0771747 0.0241524 -0.015629 
54 1 44.0977 -3.13845 -8.22305 -0.00359077 -0.0265835 -0.0136869 
39 1 44.2994 -5.01682 -9.96548 -0.00959015 0.0072549 0.026842 
53 1 45.5784 -5.24576 -7.95091 0.00430203 0.00754214 -0.00193452 
65 2 46.3565 -4.9433 -7.22808 -0.0888158 0.0166175 0.0212365 
45 1 44.7458 -4.33066 -8.54339 0.00654685 -0.0153024 0.00249981 
69 2 44.1047 -2.84762 -7.07217 0.105662 0.0321738 0.0102855 
41 1 43.2388 -4.28645 -10.6259 0.0151597 -0.0103823 -0.000467358 
57 1 43.2801 -2.35893 -8.87783 -0.0105347 0.0283411 0.0188427 
66 2 43.0851 -1.40298 -8.53396 0.0430255 -0.032908 0.134978 
47 1 43.1076 -2.8281 -10.3376 0.010477 -0.00849806 -0.0237252 
58 1 42.9816 -2.14177 -11.4548 0.0126096 0.00733194 0.0323192 
287 2 45.1696 1.69106 -9.41699 -0.0228553 -0.094298 0.0601484 
275 1 45.2272 2.55178 -9.1029 -0.00850218 -0.00893475 -0.0181058 
272 1 44.6705 3.644 -9.92065 -0.00998481 0.00455646 0.000337829 
264 1 46.7347 2.82856 -8.94356 -0.0135015 -0.00658785 0.0156775 
284 2 43.5966 3.27439 -10.0078 0.0213389 -0.0481809 -0.0797904 
258 1 47.1927 4.26876 -8.73308 0.00524052 -0.00815356 0.0302372 
262 1 45.2218 5.00245 -9.35487 0.0161202 0.00125206 0.0249727 
288 2 47.841 1.13365 -9.41734 -0.0283773 0.03054 -0.0458303 
276 1 47.8374 1.89737 -8.6217 0.0200873 -0.00516416 0.00343764 
256 1 46.5122 5.36269 -9.03049 -0.0072812 -0.0028636 0.0121981 
257 1 48.5009 4.71458 -8.11414 -0.00987789 -0.00713561 -0.0213563 
286 2 49.6178 1.66728 -7.07358 -0.0279557 -0.018203 -0.051662 
274 1 48.9843 2.32174 -7.76641 0.0111337 -0.00242394 -0.0298147 
263 1 49.3381 3.62301 -7.6654 -0.0241644 -0.000286293 0.00318734 
273 1 50.7081 3.991 -6.91922 0.0196057 -0.00535049 0.013226 
285 2 51.5427 3.27598 -6.81231 -0.0182176 0.0327411 -0.0363707 
277 2 47.5678 9.91027 -8.37876 -0.0181838 0.0716265 0.0641617 
280 2 43.6167 7.73804 -10.3105 -0.0227955 0.0553633 0.0446678 
265 1 46.6391 9.40035 -7.73639 0.0169569 0.0151566 -0.00654367 
259 1 47.5696 8.28866 -7.66126 -0.0572352 0.0032908 -0.00235931 
253 1 47.8635 7.15381 -8.16051 0.00312669 -0.00973818 -0.0150027 
254 1 46.7122 6.87881 -8.83716 -0.0033795 -0.0180414 -0.00328004 
267 1 45.316 8.90136 -8.17147 -0.00127038 -0.0189238 0.0194527 
260 1 45.6438 7.72509 -9.17434 0.029166 -0.000220163 0.00225639 
271 1 44.39 5.89132 -10.113 0.00729345 -0.0108254 -0.00141383 
268 1 44.4839 7.22005 -9.92418 0.0102993 -0.0153218 0.00511452 
279 2 44.2953 8.96535 -7.65482 0.101504 -0.0390868 -0.0179074 
283 2 43.7733 5.47248 -10.8738 0.148802 0.0788351 0.0475075 
278 2 49.0314 9.87501 -6.71407 0.0585306 0.068293 0.045278 
266 1 48.7237 8.74976 -6.74637 0.0158607 0.0276371 -0.00339036 
255 1 48.8398 6.04206 -7.89281 -0.00712542 -0.00396581 0.00687178 
270 1 51.0537 5.32618 -7.12008 0.0264082 -0.028436 -0.00903708 
261 1 50.058 6.45665 -7.54171 -0.0218283 -0.0139538 0.0251478 
269 1 49.7506 7.79683 -6.84812 -0.00746629 -0.00803887 0.0033935 
42 1 42.9945 -4.56673 -12.0099 0.00315862 0.00556595 -0.0277662 
304 1 59.9418 -10.3521 6.42952 -0.0223621 0.00715294 0.0207149 
164 1 39.7229 11.0606 27.666 0.0159163 0.0214312 -0.00319781 
176 2 39.3106 10.1527 28.0261 0.00634004 0.0237306 -0.0577618 
175 2 41.6142 10.6882 29.8941 -0.0992557 -0.0485893 -0.0734268 
163 1 41.2933 11.685 29.2617 -0.0141535 -0.0119218 0.0162795 
48 1 42.2529 -3.79542 35.0035 0.0209425 0.0115433 0.0135333 
167 1 38.8175 11.6999 26.8519 -0.0112587 -0.00855746 -0.0103658 
67 2 42.4636 -7.76451 32.5982 -0.0933997 0.0397448 0.0951741 
68 2 42.17 -5.06264 31.9638 0.0486684 -0.0079038 0.0108801 
46 1 42.7641 -6.17871 33.8162 -0.0322673 0.0165616 0.0189982 
40 1 43.2503 -5.81251 35.2411 0.0266114 -0.0045968 0.0196244 
55 1 42.6707 -7.70921 33.7034 0.0220604 0.0125876 -0.0200868 
52 1 43.5209 -8.57171 34.63 0.00852247 0.0122319 -0.0105008 
64 2 44.0754 -9.38988 34.3918 -0.0222684 -0.114249 -0.0029881 
56 1 41.8188 -3.90898 33.641 -0.00526156 -0.0125865 0.00140049 
70 2 43.7313 -2.08885 34.3579 -0.100413 0.0217886 -0.0473271 
60 1 42.8116 -2.24185 35.1627 0.00153168 0.016008 -0.00221119 
38 1 44.2777 -6.58479 35.7684 -0.00961184 0.00121287 -0.00602092 
59 1 42.1067 -5.11732 32.994 0.00903634 0.00731165 -0.0101101 
72 2 40.8271 -3.32453 33.1923 -0.125839 -0.0511068 0.0120252 
44 1 44.1589 -8.02359 35.8455 0.0191944 -0.00235217 0.00116861 
63 2 45.8753 -9.17659 35.2354 0.0095214 0.115983 0.00779452 
51 1 45.5452 -8.40588 35.9728 0.00221376 0.0076977 -0.00835352 
172 2 43.5429 12.0247 30.1304 -0.109486 0.0440706 0.0093583 
424 2 46.9449 15.7873 -8.06525 0.0417826 0.0535004 -0.0785246 
411 1 48.4854 16.1484 -10.7493 0.00790057 0.0147097 0.0113727 
404 1 48.8339 16.3285 -9.32269 -0.0133374 -0.015437 -0.00508725 
412 1 47.9679 16.3094 -8.12795 -0.0192834 -0.0208733 -0.00942968 
398 1 50.2984 16.1644 -9.32573 -0.00738179 0.0038493 -0.0141526 
397 1 51.1101 16.6492 -10.445 -0.0115642 -0.000275109 -0.00926353 
93 1 38.7726 30.5082 11.8655 -0.0203151 0.0178299 0.00260261 
403 1 50.3964 16.7704 -11.4901 -0.0356963 0.00297363 0.0122453 
406 1 50.265 16.3215 -7.19766 0.0109894 0.0161253 -0.00804911 
400 1 51.0751 16.5085 -8.16843 -0.0120453 0.00971128 0.00349687 
399 1 52.5329 16.582 -10.6097 -0.0166854 -0.01317 0.0131916 
415 1 48.8878 15.9012 -7.10076 0.0116845 -0.00313514 -0.0097057 
408 1 53.2378 16.384 -6.99103 -0.000740957 0.0185551 -0.00252007 
402 1 52.357 16.2049 -8.17066 -0.0144366 -0.0111555 0.00410021 
427 2 48.3524 15.9136 -6.27588 -0.0521529 -0.000371959 -0.0447174 
420 1 54.7758 16.5454 -6.93661 0.00809177 0.0073984 0.00897656 
432 2 56.6973 15.8355 -6.17961 -0.0157986 -0.0456164 0.0116305 
418 1 55.8925 16.5346 -5.93838 -0.0241023 0.0132726 -0.0116961 
401 1 53.005 16.1213 -9.50335 -0.0108041 -0.0100626 0.00471335 
429 2 55.2622 15.8631 -8.47621 0.0357936 -0.0260025 -0.043243 
407 1 54.4772 16.3513 -9.23265 -0.0137322 0.0054441 0.000480288 
417 1 55.0703 17.2397 -9.91013 0.00563964 -0.0110352 -0.00311102 
426 2 55.3811 18.8125 -11.2113 0.00927917 0.0499942 -0.00458335 
405 1 53.3644 17.5678 -11.5121 0.00824706 -0.0127173 -0.0209305 
414 1 54.6653 17.9265 -10.9011 0.0204211 0.00308671 0.0028494 
428 2 50.0854 17.1341 -5.03285 -0.0143139 0.0373465 -0.127339 
416 1 50.7691 16.8943 -5.91873 -0.0347123 -0.00989475 0.0181451 
419 1 52.1693 17.2297 -6.08227 0.0025589 -0.0237713 -0.0039239 
431 2 52.8899 17.5004 -5.38452 -0.03867 0.0020543 0.0205477 
430 2 55.4196 16.5313 -5.00044 -0.0915865 -0.00823398 0.0587197 
409 1 49.1026 16.3508 -11.926 0.00464544 0.0153034 0.00402975 
102 2 40.1511 29.5064 10.6923 -0.0706311 0.046879 -0.0679262 
90 1 40.1831 30.2072 11.5633 -0.0153589 0.00646039 -0.00600825 
101 2 43.0385 30.2304 11.4291 0.0224721 -0.00603376 0.0454494 
77 1 39.6104 29.8129 14.1991 0.00229188 -0.000939305 -0.026478 
78 1 39.0246 30.1078 15.5726 -0.0149763 0.00372961 -0.0118946 
84 1 37.5786 30.299 15.8435 -0.00877433 0.0106342 -0.00523876 
95 1 37.5419 29.8474 17.154 -0.00739779 0.021131 0.0241183 
92 1 38.066 28.8395 18.1652 0.0129896 0.00572302 -0.00177055 
82 1 39.3469 28.2976 17.7866 0.00308826 0.0009852 0.00344582 
76 1 39.6512 29.0787 16.4164 -0.00568819 -0.0190779 0.0141961 
96 1 37.0872 31.5473 15.0109 -0.0229043 -0.0145855 0.000299775 
75 1 40.9329 29.7618 13.9373 0.000350401 0.0164756 -0.0110503 
74 1 40.8805 28.4775 15.9846 0.00486879 0.00831279 0.00187024 
83 1 38.4844 30.5667 13.3571 -0.0148104 0.0205467 0.0178784 
94 1 37.92 31.9137 13.8938 0.021608 0.0289575 0.0326263 
80 1 41.5979 27.2679 16.7347 -0.0195604 -0.00105976 -0.0179964 
81 1 41.2765 30.2106 12.5077 0.0167453 0.0108443 0.00215513 
104 2 37.1207 28.2862 18.4417 -0.0316928 0.025357 -0.0451244 
106 2 37.881 32.5354 13.0135 0.0203174 0.0252867 0.0281116 
98 2 43.9865 28.3956 12.2191 -0.0473712 0.0345411 0.0941905 
86 1 43.0515 28.502 12.9964 0.00420819 0.0176225 -0.00269771 
73 1 41.4257 28.6621 14.7875 -0.020385 -0.0200939 0.00255316 
79 1 42.8051 28.0978 14.4858 -0.00656694 -0.000527712 0.0224275 
85 1 43.5274 27.0668 15.3419 -0.00709814 -3.27902e-05 0.0102108 
97 2 44.0399 26.1465 15.0703 0.039553 0.0640822 0.0357472 
87 1 42.8458 26.4942 16.4255 0.00101492 0.0232942 -0.027811 
99 2 43.0126 25.888 17.3359 0.063081 0.0180846 0.0775077 
394 2 45.4167 22.6754 33.1508 0.0313328 0.0122648 -0.0571399 
89 1 42.6909 29.7569 12.2651 0.0108596 0.000562099 0.00842509 
178 2 37.0479 14.9336 23.7056 0.0733968 0.00787563 0.0248726 