ITEM: TIMESTEP
450000
ITEM: NUMBER OF ATOMS
576
ITEM: BOX BOUNDS pp pp pp
-1.2000000000000000e+01 8.4000000000000000e+01
-1.2000000000000000e+01 3.6000000000000000e+01
-1.2000000000000000e+01 3.6000000000000000e+01
ITEM: ATOMS id type x y z vx vy vz 
391 2 -0.868932 -4.97179 1.67398 0.0315096 -0.0998869 0.0137075 
376 1 0.248271 -6.5431 2.956 0.0118296 0.00860376 0.00193235 
8 1 6.3753 -8.90354 -12.0642 0.0214089 -0.0117158 -0.0325495 
28 2 6.09212 -10.4836 -10.4941 0.0189891 0.0455465 -0.0518409 
16 1 6.76471 -9.74468 -10.8845 -0.0131656 -0.0152837 -0.0124551 
207 2 6.13877 -11.5256 8.67405 -0.0157797 -0.0727231 -0.0666732 
19 1 7.35773 -8.96131 -9.94037 -0.00834029 -0.0196141 -0.0173239 
31 2 7.00626 -9.08305 -8.97914 0.0494566 -0.136223 -0.0822012 
4 1 7.70235 -6.75316 -11.0978 -0.0194429 0.011305 0.0104909 
32 2 8.3384 -6.43656 -7.97151 -0.0991712 0.0213525 0.0447699 
10 1 7.68558 -7.41425 -9.77503 0.0273358 0.00983686 0.00247265 
20 1 8.02604 -6.34232 -9.03388 -0.0201894 0.00374107 -0.0111717 
12 1 9.02652 -5.14962 -10.7273 -0.00307645 0.000295059 -0.00326584 
6 1 7.98672 -5.51903 -11.3613 0.000790689 -0.0027053 0.000297405 
24 1 9.78668 -4.14239 -11.3397 0.00105199 0.00554655 -0.00233305 
23 1 9.06971 -5.38551 -9.44015 0.0194508 0.0213448 0.000109812 
35 2 9.9844 -5.39637 -8.76316 -0.118506 -0.0445456 -0.052261 
36 2 10.9067 -4.60963 -11.4216 0.117262 -0.0600892 0.0510802 
388 2 -0.478672 -6.86719 3.94784 -0.0532487 0.0450559 0.0124449 
395 2 -0.851178 -7.26636 -0.894725 -0.0325111 -0.0395138 -0.0028883 
392 2 -0.121361 -5.00751 -1.81544 0.00938205 0.0031054 0.0121347 
380 1 0.233968 -5.70173 -1.1099 0.0216289 -0.00632328 -0.00638814 
390 2 3.6707 -7.53879 -3.8812 -0.0567526 -0.0125994 0.105022 
382 1 3.56991 -8.21745 -2.89918 -0.0122576 0.010149 0.0198325 
381 1 5.86007 -8.61903 -1.58903 0.0115048 -0.026558 0.00716153 
371 1 4.45609 -8.15649 -1.74692 0.00131616 0.00722741 -0.0210823 
365 1 3.60549 -7.59224 -0.658234 -0.00492459 0.0149159 -0.0103315 
384 1 2.16649 -8.01964 -2.76795 -0.00525741 0.022834 -0.0205547 
366 1 2.23781 -7.62965 -0.296433 -0.000480277 0.0382661 0.0115874 
372 1 1.41258 -7.95594 -1.48816 -0.000886245 -0.028804 -0.00663789 
383 1 0.186866 -7.09615 -1.56117 0.0208548 -0.0279185 0.00146028 
396 2 1.29933 -7.90318 -3.41388 0.0377754 -0.0482453 0.0304756 
378 1 6.71893 -7.91776 -0.615062 -0.0179253 -0.00320873 -0.00922225 
495 2 7.77689 -7.70746 -0.653124 -0.0353338 0.0595482 -0.0100272 
393 2 6.53973 -8.9694 -2.20396 0.0175494 -0.0312797 -0.0728599 
379 1 0.0544641 -5.48743 1.79544 -0.0174234 0.00849198 0.0180038 
387 2 1.96187 -7.303 4.97956 -0.0504123 -0.059635 0.0267615 
375 1 2.3705 -7.2918 4.00499 -0.00927274 -0.0289102 0.00320802 
369 1 5.87808 -7.39475 0.478272 -0.0190489 0.000290164 0.000441839 
364 1 1.56093 -6.68936 0.695962 0.0150714 -0.0264728 0.0114434 
363 1 4.4865 -6.98056 0.502879 0.0230234 -0.00553844 0.0301277 
361 1 3.81195 -6.9974 1.79287 -0.0117807 -0.00443296 0.0218575 
367 1 4.46336 -7.41465 2.95412 0.00435681 -0.0154545 -0.0132225 
374 1 5.7809 -7.96111 3.07946 -0.00189379 0.00684855 -0.000633996 
362 1 2.55706 -6.40548 1.70126 0.0208994 0.000797967 -0.0280383 
368 1 1.59152 -6.87091 2.8934 0.0106987 0.00969603 0.00171509 
386 2 5.97672 -8.00666 4.0576 0.0586394 -0.122503 0.0288784 
370 1 0.536981 -5.69956 0.478895 -0.00377167 -0.00717966 0.0176059 
385 2 4.06397 -8.13984 4.85974 -0.0457689 0.0873913 -0.0370375 
373 1 3.80679 -7.55046 4.10447 -0.00728727 0.0212337 -0.00886344 
377 1 6.58991 -7.53805 1.94636 -0.00620753 0.0144027 0.0159229 
389 2 7.49687 -8.12366 2.37231 0.0852457 0.00744898 0.0780726 
2 1 6.45105 -7.5367 -11.7874 0.00883089 -0.0103631 0.00820372 
250 2 6.01268 -6.16738 16.379 -0.014116 0.00656601 0.0180378 
238 1 6.51779 -7.03092 17.0103 -0.0130096 0.0285779 0.00109047 
252 2 7.40198 -8.13732 15.6037 0.0536222 -0.0380621 0.136699 
240 1 7.2021 -8.29183 16.6185 0.0278597 0.0205974 -0.0065742 
228 1 7.04452 -9.36289 17.2015 0.00158477 0.010864 -0.0198578 
239 1 7.65196 -10.3333 16.3891 -0.00732945 -0.00978536 -0.00263815 
236 1 8.51615 -11.1128 17.054 0.0202996 0.00146667 -0.0100881 
251 2 7.8766 -9.9317 15.1593 -0.0415077 0.0147976 -0.077508 
245 2 5.71012 -6.03351 22.6005 0.0757036 -0.0409367 -0.151281 
227 1 5.99025 -7.20472 18.2398 0.0120235 0.0369838 -0.0177325 
233 1 5.77114 -7.20724 22.4548 -0.0174237 0.00133318 0.0114784 
234 1 5.09677 -6.02732 20.0567 -0.0370709 -0.0172503 -0.0106027 
242 2 6.73346 -8.45702 24.3143 -0.0654236 -0.0371611 -0.0513081 
237 1 4.74921 -6.37659 18.7273 0.000261868 -0.00870951 0.0287115 
223 1 6.05228 -9.69124 22.7332 0.0082383 0.014896 0.00510634 
225 1 5.68229 -7.16049 20.962 -0.00271705 0.0192421 0.0285196 
219 1 6.1544 -8.51903 20.372 -0.00568964 -0.000791378 0.0188588 
230 1 6.18872 -8.29137 23.2453 -0.00926425 0.0210883 -0.0167174 
221 1 6.01591 -8.50372 18.9666 0.00742057 -0.00864509 0.0112517 
217 1 6.16953 -9.51659 21.3069 -0.00193512 -0.0287079 0.012611 
229 1 6.96611 -10.6673 23.4772 0.00755105 -0.00774113 -0.00360321 
222 1 6.31955 -9.69114 18.3165 0.00623392 -0.0231851 0.0101688 
218 1 6.88828 -10.6333 20.3996 -0.00928262 0.0153739 -0.00432469 
220 1 6.9102 -10.6406 18.9755 -0.00338641 -0.00447797 -0.0167417 
34 2 10.184 -2.30203 35.4172 0.0953578 -0.0428845 0.0427194 
231 1 7.55028 -11.7961 22.8298 0.00620341 0.0105461 0.00369996 
15 1 5.74987 -9.57036 34.7614 0.00129085 -0.0106661 0.00759843 
249 2 3.97439 -5.72573 18.3478 0.00881542 -0.0440719 -0.128933 
246 2 4.43916 -5.52255 20.5896 0.0116742 0.123839 -0.00575359 
241 2 7.15186 -10.4068 24.3733 -0.00905979 -0.0104076 0.0424268 
26 2 3.6709 -6.68558 32.5019 -0.0232681 -0.00991423 -0.0865307 
14 1 4.204 -6.4926 33.5557 -0.00868032 0.0115246 0.00345017 
13 1 5.14481 -8.56225 33.9457 -0.00598952 0.0238177 -0.00166949 
7 1 4.82583 -7.24523 34.6991 0.00219653 -0.00457038 -0.00337361 
25 2 6.22076 -8.21451 33.6544 -0.0899342 0.017732 0.0384473 
1 1 5.83405 -6.46325 35.415 -0.00253089 0.00996696 -0.0166564 
17 1 5.09253 -5.63988 32.9503 -0.0017798 -0.00843244 0.0246579 
29 2 4.65919 -4.66184 32.6168 -0.015589 0.0311335 -0.0284556 
30 2 7.28317 -4.11208 31.6868 0.0113363 -0.0361176 0.0278578 
18 1 7.35407 -4.52174 32.8125 0.0140718 -0.00532441 -0.000258213 
33 2 9.16503 -3.14505 33.187 0.0181608 -0.102788 0.0173364 
9 1 6.14128 -4.85444 33.609 0.0109494 -0.0145469 0.00557881 
3 1 6.1021 -5.01752 35.0911 0.00597879 0.00153045 0.00216355 
11 1 8.45136 -3.87974 35.0026 0.00155007 -0.00557891 0.0116068 
21 1 8.31622 -3.86835 33.6078 -0.0231319 0.0153089 -0.0329101 
5 1 7.30154 -4.68181 35.7684 0.00765736 -0.00367782 -0.00560021 
22 1 9.50539 -3.07388 35.844 0.0131212 -0.0221716 0.0188524 
177 2 -11.3087 9.08855 29.0258 -0.104104 -0.00481417 -0.0489423 
226 1 8.00742 -11.4632 18.419 0.00190432 0.00844375 0.015682 
27 2 5.57648 -10.6641 34.5454 -0.00993687 0.0267623 -0.043243 
224 1 7.45709 -11.5555 21.236 -0.0182336 0.0225367 -0.000436782 
248 2 9.47537 -11.3989 16.4831 -0.106616 0.0902251 -0.106935 
204 1 4.60221 29.4234 4.56824 -0.00857235 0.0126403 0.0247467 
202 1 4.38791 28.8926 5.94917 -0.0335233 0.0163064 0.00564475 
192 1 5.49373 30.5536 4.99105 0.012758 0.0189555 0.00811854 
215 2 5.96482 31.0199 2.79431 0.00214891 -0.0517765 -0.0601618 
186 1 5.55687 31.1494 6.29895 0.0122533 -0.020404 -0.0154049 
203 1 6.37859 30.9677 3.85158 0.0167282 0.00546073 -0.0019961 
212 2 7.99986 32.1726 3.87181 0.0200152 -0.0231534 0.0267194 
200 1 7.23647 31.9564 4.58227 0.0193132 0.0139837 -0.00236269 
211 2 8.79728 34.0385 5.48813 -0.0472342 0.0405212 -0.0228824 
190 1 6.98402 32.92 5.62128 -0.0456523 0.00246581 0.0405923 
199 1 7.84494 33.9925 6.15933 -0.00410354 0.0157426 -0.0072317 
282 2 -5.76949 28.8521 6.17435 -0.0450276 0.0113543 -0.0157481 
135 2 -6.2407 28.2859 6.51655 0.0500591 -0.0264959 -0.0123067 
214 2 5.99332 28.5225 7.55441 0.0278554 -0.0213602 0.0989696 
201 1 4.6924 27.5127 10.1026 -0.0236985 -0.0104048 -0.00486394 
191 1 4.90605 28.9719 7.33609 0.0034218 -0.0107691 0.0157338 
198 1 4.90785 28.9027 10.0152 0.00970473 0.0144265 -0.0212813 
213 2 5.34249 26.8575 9.66664 0.0366812 -0.0378433 0.00267158 
209 2 3.78222 30.8953 11.7656 0.0020503 0.0341056 0.0026061 
182 1 5.68351 33.2448 7.57959 -0.0217633 -0.00778864 0.00628654 
183 1 5.0705 31.1665 8.75263 0.00336618 -0.00754126 0.0238993 
185 1 5.19208 30.4311 7.45381 0.00545646 -0.0233418 0.0165474 
189 1 4.96096 30.3428 9.89492 0.002029 -0.0044453 -0.0089677 
197 1 4.50483 31.337 10.9559 0.00864644 0.00190272 -0.0140838 
194 1 4.67464 32.8193 11.1421 0.019397 0.00764075 0.00925238 
187 1 5.13052 33.4816 9.90155 -0.0178614 -0.0100802 -0.0068722 
181 1 5.25459 32.588 8.75559 -0.00380841 0.016937 -0.011238 
188 1 5.90197 34.586 7.60462 -0.0130197 -0.00702207 0.0106877 
184 1 6.16302 32.385 6.54194 0.0055792 0.00657259 -0.00317437 
193 1 5.2113 34.8816 10.1076 -0.00480852 -0.00992757 -0.00870245 
205 2 5.20671 35.2402 11.1561 -0.0397399 -0.045375 0.0221863 
208 2 7.15227 36.0231 7.08477 -0.163822 0.0505052 -0.0205513 
196 1 7.1157 34.9443 6.65276 -0.00280226 -0.0128443 0.00773123 
195 1 5.75612 35.3413 8.85325 -0.0193723 0.006731 0.00778115 
539 2 7.1159 21.0939 35.6005 -0.0713901 -0.0482599 -0.0308754 
394 2 10.0682 25.0128 13.5864 0.024169 0.0298201 -0.0529068 
247 2 9.59839 35.304 18.7031 -0.0580374 -0.0211651 -0.0124976 
235 1 8.75778 35.7374 19.273 0.00492978 -0.0129449 -0.00860379 
232 1 8.37824 35.5545 20.6137 -0.0138642 -0.00696908 0.0146369 
244 2 8.83224 34.8498 21.3076 -0.00101921 0.0383279 -0.0600213 
243 2 8.06692 35.2651 23.1197 -0.0641109 0.0267787 -0.0627322 
451 1 -3.62919 14.3218 26.8245 0.00257254 0.009274 0.01252 
460 2 -4.62447 13.9151 26.3393 0.112181 -0.0241923 0.0124658 
463 2 -2.56342 14.1129 26.0553 0.0544387 0.058117 -0.0121364 
448 1 -3.85325 15.4978 27.721 0.00464837 -0.00458855 -0.0053029 
440 1 -4.50943 16.6315 28.2534 0.00105953 0.0217965 -0.0186256 
459 2 -6.51718 16.2974 27.4868 0.0659708 -0.0938814 0.0179749 
447 1 -5.83951 16.9134 27.8753 -0.019072 -0.0185458 0.00285072 
464 2 -2.40515 14.4471 29.9492 0.0417128 -0.00510527 -0.00449965 
446 1 -5.48972 20.3492 28.7343 0.000476316 -0.00435505 0.00050072 
457 2 -6.11322 19.1761 26.6739 -0.0291427 -0.022467 -0.101713 
445 1 -5.94551 18.3997 27.5157 -0.00667734 -0.0176979 0.00273673 
458 2 -5.4979 20.9903 28.0256 -0.00335419 -0.0695828 0.0169455 
439 1 -5.15732 19.0422 28.6308 0.0206856 -0.0112927 0.00911822 
444 1 -3.11815 16.6174 33.3098 -8.4135e-05 -0.0101815 -0.0142667 
467 2 -2.98688 13.8954 33.6362 -0.000561468 -0.0694488 -0.00394412 
452 1 -2.75235 14.7072 31.9376 -0.00217551 -0.00903119 -0.00695538 
442 1 -2.50631 15.2193 30.7026 -0.0116792 0.00144094 -0.0121989 
455 1 -2.90478 15.014 33.1544 -0.00819032 -0.00960123 -0.023872 
438 1 -3.29094 17.1553 31.9126 -0.00740112 -0.0256519 0.00458675 
436 1 -3.29129 16.5585 30.5771 -0.00525493 -0.0173977 -0.000749919 
434 1 -3.86901 17.2997 29.4732 0.0162786 -0.022949 0.023326 
456 1 -3.79472 17.1687 34.5619 0.0166605 0.00963251 -0.0182389 
468 2 -4.2241 16.3693 35.225 0.0508927 0.036866 0.0799108 
437 1 -3.43032 18.5992 32.0217 0.000484502 0.00166342 -0.029766 
433 1 -4.31413 18.4963 29.9373 -0.00926074 0.00808833 -0.0159924 
465 2 -3.01207 20.9998 34.2493 -0.0171759 0.0458081 -0.0329197 
435 1 -3.53215 19.3915 30.8059 0.01544 0.00350791 0.000589034 
461 2 -5.14583 22.3835 29.9626 -0.0996475 0.00501437 0.0248208 
462 2 -3.16242 22.6628 31.9625 0.00476216 -0.0703306 -0.0252667 
449 1 -5.11667 21.2273 29.9927 -0.00207095 0.02746 0.00827475 
454 1 -3.5717 18.6579 34.6829 -0.0281101 0.00616758 -0.00234785 
453 1 -3.21427 20.7726 33.214 -0.00574327 -0.00340834 -0.0136968 
443 1 -3.39588 19.3807 33.3413 -0.000471843 0.028977 -0.0128196 
441 1 -3.84513 20.855 30.6834 0.0118691 -0.0107813 -0.0277642 
450 1 -3.41375 21.6034 31.9658 0.00922794 -0.00595525 0.000131927 
466 2 -2.91904 18.9562 35.5481 0.0468137 0.0519356 0.0786337 
179 2 7.53886 21.7947 35.5165 -0.128836 -0.0830617 -0.0362917 
206 2 4.60016 33.2826 12.0247 0.0226077 0.0223557 -0.042163 
574 2 24.3878 -0.81741 -10.0934 0.0806952 0.067246 -0.0344943 
562 1 25.2278 -1.05289 -9.61481 0.00536837 -0.0156087 6.80984e-05 
551 1 25.8326 -0.0123649 -10.698 0.00182089 -0.0113677 0.00118673 
545 1 27.2806 0.026296 -10.6062 -0.00290839 0.0117979 0.0289872 
564 1 25.7508 -1.15422 -8.25142 -0.028904 -0.0109588 -0.0198745 
541 1 29.5537 0.807723 -11.5081 -0.010085 -0.00714351 0.00323754 
546 1 27.7585 -0.104291 -9.2688 0.00307199 0.0319976 0.0081537 
576 2 25.1289 -1.5412 -7.23464 -0.0213088 0.0650105 -0.0707876 
552 1 27.2233 -0.752838 -7.99444 -0.0138999 0.000467234 0.00561301 
544 1 29.0436 0.417494 -9.17295 0.00435282 0.0202291 0.0115575 
575 2 28.3073 -1.99721 -6.08009 -0.00864482 0.0576474 -0.0723379 
543 1 28.1499 0.70671 -11.6723 0.0141516 0.000846923 0.00719424 
542 1 29.992 0.930753 -10.1184 -0.00392205 -0.0180988 0.0334908 
550 1 29.1599 0.737422 -7.66698 -0.000640335 0.00949726 -0.0131278 
563 1 27.7754 -1.08814 -6.67303 0.0278795 -0.0397231 -0.00449143 
560 1 28.177 0.472962 -6.56926 -0.00399831 0.0194419 0.015192 
572 2 28.2754 0.381579 -5.55847 0.0175355 -0.016869 -0.0679182 
567 2 33.2621 1.35298 -10.1762 0.0252052 0.00854385 0.019446 
555 1 32.4577 1.32285 -10.817 0.0168496 0.018504 -0.00864292 
548 1 31.4075 1.10831 -9.517 0.0117881 0.00682933 -0.00917663 
571 2 30.701 1.93461 -6.30462 0.146485 -0.0472544 0.0640298 
559 1 30.342 1.36103 -7.26747 0.00319571 -0.0139646 0.0240593 
556 1 31.5735 1.17822 -8.07161 -0.0110774 0.00378668 -0.00740137 
568 2 32.4268 0.832949 -7.47826 -0.00952293 -0.0582769 0.0179637 
142 2 14.5278 10.8049 -8.06132 0.0390382 0.0425045 0.00445202 
129 1 17.2907 12.0029 -7.94634 0.00235337 0.0156191 -0.00403649 
119 1 16.7774 11.4455 -6.8288 -0.0145239 -0.00173061 0.0299107 
130 1 15.3686 11.1756 -7.07269 -0.00162843 0.0138196 0.00327733 
136 2 20.1248 10.0654 -0.114743 0.0578871 0.0105581 -0.0266038 
113 1 17.5404 10.7352 -5.75456 -0.0002066 -0.0109072 -0.00696905 
126 1 18.711 12.0151 -7.8577 0.0177749 0.0169647 -0.01125 
429 2 35.5282 10.7219 -11.8849 0.0368331 -0.109195 0.0172407 
117 1 19.4872 11.0663 -7.16217 -0.0061146 0.010889 0.0285956 
125 1 20.9642 11.0442 -7.11962 0.0129781 0.0100109 -0.0189566 
122 1 21.8169 11.1646 -6.1389 0.00316261 -0.00319734 0.00351638 
144 2 14.0561 9.87961 -6.05533 0.00191121 0.0218872 -0.0231878 
132 1 14.8983 10.587 -5.78776 0.00692519 -0.0097753 0.0117844 
112 1 17.7412 10.6641 -3.31389 0.0368477 -0.0257806 0.0226987 
120 1 15.7706 10.1734 -4.63015 -0.00455733 0.0102146 -0.00972185 
114 1 17.1048 10.5053 -4.61031 -0.00431954 0.0137421 0.00543676 
128 1 16.4591 9.36449 -2.33777 -0.00738689 0.00224496 -0.00544033 
143 2 14.911 8.77673 -3.30061 -0.0566399 0.00479208 -0.0704407 
131 1 15.7944 9.33918 -3.57659 0.00118722 -0.0133039 -0.0062814 
118 1 17.6322 10.1688 -2.02326 0.00214567 0.0102179 -0.00334016 
127 1 18.4776 9.89188 -0.813646 0.0155976 0.00673728 0.00108765 
139 2 18.0568 9.29767 -0.0939207 -0.0394365 0.0154322 -0.0194159 
140 2 16.3055 8.46015 -1.86077 0.0492588 0.011843 0.0147058 
116 1 20.1238 10.4912 -2.43233 0.020488 -0.0293703 0.0127982 
109 1 19.5405 10.7291 -4.99172 -0.00165621 0.00538303 0.00214168 
111 1 18.7363 10.287 -6.14873 0.0302803 -0.0284919 -0.00217322 
124 1 19.8181 10.1215 -1.10124 0.00447809 -0.0105085 -0.00241574 
110 1 19.1745 10.6926 -3.61689 -0.0222463 -0.0132638 -0.00131095 
121 1 21.6563 11.1966 -3.63858 -0.0199708 6.96377e-05 0.00136165 
355 2 29.3314 -11.007 4.85099 -0.129053 0.0161713 -0.0737784 
134 2 22.967 11.5529 -6.01332 0.012994 -0.0855015 0.0240388 
137 2 21.7159 11.2707 -8.00904 0.0302788 -0.0596012 0.0354133 
123 1 21.0728 11.6899 -2.46357 0.0135576 -0.00278264 -0.013631 
553 1 32.0912 0.632557 -11.9972 0.00281562 -0.0027697 -0.00861677 
115 1 20.9831 10.7097 -4.97082 -0.0032756 -0.0235047 -0.00635926 
133 2 22.6909 11.3734 -3.88455 -0.0068356 -0.0126382 -0.0295718 
103 2 28.3488 -6.05278 14.7963 -0.0163869 0.0530477 -0.0159399 
91 1 28.89 -5.48769 15.5254 -0.0278763 0.00357811 0.0117101 
76 1 30.7618 -5.34983 17.3343 0.00658249 -0.00343504 -0.00370224 
82 1 30.0575 -6.07245 16.4298 0.000867868 0.0137484 0.0458086 
92 1 30.1393 -7.37052 16.0829 -0.0100618 0.00501474 -0.0136521 
84 1 32.189 -7.37059 17.2881 -0.00491233 0.0233465 -0.00475766 
104 2 29.6228 -8.00974 15.3191 0.0269499 0.0480196 -0.0648646 
95 1 31.3335 -8.00351 16.3653 -0.00831637 0.00412121 -0.0153294 
107 2 31.3437 -8.83338 15.6987 0.067672 0.00154342 0.0073324 
100 2 28.5076 -3.32338 15.4412 0.00015506 -0.0682469 0.0378097 
88 1 28.7996 -4.18596 16.0491 -0.0133676 0.00985692 -0.00577905 
99 2 27.2552 -2.70239 18.5594 0.018151 0.0312942 0.0745685 
87 1 28.387 -2.93898 18.4694 -0.000554009 0.00989855 -0.0154891 
97 2 28.2278 -1.62048 20.5423 -0.0573265 -0.0963091 0.0194264 
80 1 29.2599 -3.57014 17.322 -0.0106859 0.0121607 0.00575232 
96 1 33.5093 -7.98081 17.3133 -0.00896336 0.0176015 0.0112556 
78 1 31.7802 -5.86558 17.6941 0.00381486 0.0441896 -0.0262097 
77 1 32.4064 -5.22967 18.717 -0.0232913 0.00151094 0.019504 
83 1 33.7741 -5.87474 18.9953 0.00911451 0.0192974 -0.00780895 
94 1 34.1596 -7.26291 18.4978 -0.0132747 -0.00131091 0.0151074 
106 2 35.1662 -7.72517 18.3755 0.00744065 -0.101986 -0.0381338 
85 1 28.9077 -2.3106 19.9038 0.0067199 0.00686957 -0.0103391 
74 1 30.2244 -4.28165 18.1125 0.0161382 0.00105162 -0.0179253 
93 1 33.7353 -5.77444 20.5446 -0.0108951 0.0229514 -0.0134685 
79 1 30.325 -2.32867 20.103 0.00551502 0.0120267 0.0209005 
98 2 31.4235 -0.52205 20.1843 0.0209194 0.0385088 0.0676327 
73 1 30.8863 -3.35693 19.173 0.00731874 -0.0239272 0.00569428 
75 1 32.0114 -3.98257 19.5602 -0.00636454 0.00725551 0.0145773 
86 1 31.4304 -1.47689 20.6078 -0.00529149 -0.0139137 0.005491 
89 1 32.6382 -2.38491 21.0265 -0.00911267 0.00582174 -0.00838514 
81 1 32.6582 -3.63255 20.908 -0.0252953 -0.00796764 0.0171699 
101 2 33.1045 -1.85673 21.8372 -0.0279024 0.0156838 0.0079143 
90 1 33.3251 -4.82013 21.511 0.0161089 -0.00959014 -0.00215627 
102 2 33.8896 -4.69673 22.3618 -0.0386802 0.0621869 -0.0667389 
570 2 26.3599 0.198859 33.6782 -0.0424394 -0.00933979 -0.012614 
557 1 28.9659 0.650661 34.3311 -8.31093e-05 0.0145775 0.00109758 
549 1 27.9808 0.117982 34.9905 -0.0280476 0.013192 -0.0196301 
558 1 26.4405 0.0973962 34.7875 0.0105848 -0.0063186 -0.0076758 
561 1 25.5514 0.18241 35.8704 -0.0051446 0.0318433 0.00542206 
569 2 30.7666 2.2176 36.0684 0.0343448 0.0702303 0.0837433 
565 2 32.4234 -0.26086 35.5768 0.0148334 -0.102883 0.0673556 
547 1 30.6728 1.11434 35.4754 0.00607484 0.0103281 0.0141131 
566 2 30.8525 -0.337827 33.7035 0.0698143 -0.0325341 0.0293874 
554 1 30.3369 0.502742 34.078 -0.0216231 0.00309213 0.0188292 
573 2 24.6051 0.122933 35.1887 0.00958998 -0.0352622 -0.0730266 
493 2 25.4448 28.8099 -0.638322 -0.0282728 0.0382606 0.0500817 
478 1 30.3004 26.863 1.78585 -0.00406649 0.0123129 0.006206 
503 2 30.6719 25.8782 1.30243 0.00817974 0.00994856 -0.000538403 
141 2 16.8228 11.9546 -9.07555 -0.0653195 -0.0368232 -0.0487397 
500 2 33.1088 29.2479 -5.05018 -0.00730914 0.0216457 0.0749157 
499 2 29.9468 26.4324 3.99912 0.00900803 0.00629824 -0.057275 
502 2 29.8761 24.3228 -5.3572 -0.0114771 0.0598111 0.0591198 
486 1 28.7827 27.1405 -5.00771 -0.00468334 -0.0152801 -0.0108853 
489 1 29.2043 26.0347 -4.84588 0.0167961 0.0115432 -0.0268058 
492 1 29.6797 24.9535 -4.50228 0.00334743 0.0243582 0.00413472 
477 1 30.0172 29.0519 -3.30517 0.00847712 0.0129525 0.00536344 
485 1 28.6091 29.7723 -3.44339 0.00725672 0.00234967 0.00494619 
482 1 27.5399 29.5631 -2.65504 0.0160938 0.0203008 -0.0137835 
494 2 28.5287 30.2936 -4.37311 -0.0154026 -0.0279349 -0.0116529 
469 1 28.9979 29.1193 -0.715836 -0.00590455 0.0117917 0.027032 
475 1 27.5149 28.9642 -1.16305 0.00650819 0.00231782 0.0013882 
108 2 26.5701 30.1507 -3.44916 -0.00714609 0.0443452 0.0231707 
473 1 31.0626 27.2286 -0.470983 -0.0180636 0.0105903 -0.00848336 
490 1 30.7104 24.3417 -3.40805 -0.00130868 -0.016222 -0.000708641 
480 1 30.8408 25.463 -2.47788 0.010106 0.0129848 0.0157773 
488 1 31.1502 29.4488 -3.83852 0.00224625 -0.00326638 -0.0183313 
474 1 30.9875 26.3436 -1.43755 0.00922772 -0.0018768 -0.0201365 
471 1 29.8887 29.1221 -1.74995 0.00262868 -0.0326008 -0.0138906 
491 1 32.4798 29.3607 -3.99763 -0.0204812 0.0354002 -0.0152153 
498 2 33.1981 29.9097 -3.41192 -0.0159773 -0.00316804 -0.0184649 
479 1 31.1475 28.7113 -1.13397 0.0155618 0.00158125 0.00675594 
497 2 31.8547 28.4307 -1.91004 0.0535482 -0.0140607 0.093873 
501 2 31.6825 29.5687 -0.500759 -0.0654198 0.0651733 0.0387675 
487 1 29.5552 27.1594 3.12129 0.000345342 0.00118711 0.0188413 
481 1 26.4533 28.6987 -0.217124 0.00351993 0.0284155 -0.0114275 
484 1 28.6318 28.307 3.09369 -0.0273443 -0.0069179 -0.0159547 
496 2 28.6402 29.3522 3.68273 -0.0554961 0.00118198 -0.105684 
470 1 29.4134 28.9039 0.646326 0.0187815 0.0094978 -0.0103293 
476 1 28.2176 28.7389 1.52623 -0.0380399 -0.00923012 -0.00158921 
483 1 27.1418 28.5998 0.942019 0.0288884 -0.0282776 -0.00524695 
472 1 30.2517 27.6579 0.694782 0.00396843 0.00483402 0.00942257 
138 2 19.2871 12.4713 -8.72936 0.000811167 0.0981879 -0.0202757 
431 2 35.9424 15.35 -11.492 -0.00777365 0.0660229 0.017507 
527 1 33.0078 16.0598 17.2821 0.0213857 0.0129021 -0.000199274 
516 1 32.4542 16.3742 18.5946 0.00399789 0.0099001 0.0309416 
536 2 32.2329 15.4134 15.4701 0.0165137 0.00688689 0.0275608 
524 1 32.2897 16.4531 15.944 0.0012186 -0.02146 -0.00442871 
514 1 31.5965 17.7018 15.895 0.00278811 -0.0331549 0.00896456 
519 1 30.4728 21.4296 16.4706 0.0229523 0.00762799 0.0195204 
531 2 30.1516 22.3767 15.9641 0.0502252 -0.0296003 0.0425588 
506 1 31.2417 19.5851 17.4676 0.0137653 -0.0274596 0.00923466 
508 1 31.2361 18.105 17.3092 0.0186731 -0.0179349 0.0160888 
535 2 31.5621 17.9709 13.724 0.00820698 0.0403534 0.0443143 
512 1 30.8549 20.1677 16.2431 0.0165826 0.0172046 0.00870928 
523 1 31.2333 18.3862 14.6186 -0.00846369 -0.0191506 0.0169555 
520 1 30.3796 19.4441 14.9217 -0.0118728 -0.0130744 -0.0259368 
532 2 29.6125 19.717 14.1913 0.00151726 -0.0356884 0.0235085 
510 1 31.5506 17.4454 18.5753 0.00785695 0.0215556 0.00326658 
528 1 32.664 15.5591 20.0494 0.011435 0.0364451 -0.00365095 
538 2 33.1753 15.8201 22.193 0.0222937 -0.00418267 -0.0905135 
526 1 32.7566 16.2776 21.188 0.0100899 0.0160661 -0.00876295 
515 1 31.985 17.574 21.1506 0.0025535 -0.00144701 -0.0130883 
509 1 31.4998 18.2365 19.7592 0.00114477 0.00985992 -0.000939627 
525 1 31.4235 18.582 22.0935 0.00753125 0.00105946 -0.0189405 
529 2 31.2296 23.2745 17.3562 0.0541097 0.129195 0.0231202 
511 1 31.0899 21.6714 18.8539 0.00571244 0.0127377 -0.00735474 
517 1 30.9379 22.2872 17.5573 0.0107239 -0.00356327 0.00487524 
530 2 31.6038 23.1769 19.5829 -0.0489091 0.041272 -0.0599618 
533 2 31.2868 22.2482 22.4519 0.0234079 0.120156 -0.0768027 
521 1 31.3679 21.8015 21.3502 -0.0042324 0.0048631 0.00889758 
518 1 31.0607 22.4742 20.0827 0.00194329 0.0312735 -0.00947561 
534 2 31.1819 20.5852 23.2882 0.0258362 -0.0349325 -0.00560231 
522 1 31.2857 19.8916 22.3861 0.00852802 -0.002212 0.00737371 
507 1 31.3379 19.6954 19.9474 -0.00634284 -0.000407748 -0.0143369 
513 1 31.3408 20.4623 21.0624 0.0101873 -0.00178609 0.0122553 
505 1 30.8565 20.2659 18.8307 -0.00205821 -0.00621153 0.0203583 
418 1 34.0163 12.6228 34.9648 0.00129631 0.00181535 -0.00829976 
430 2 33.4764 12.3525 33.9446 0.00652699 -0.100411 0.0157825 
420 1 35.2042 13.0114 35.2266 -0.00973715 0.000202805 0.0141774 
432 2 33.3223 13.3107 35.5327 -0.0550163 0.0869702 0.0428398 
288 2 49.2247 -4.84506 -7.68148 -0.00070588 -0.0377648 -0.00567775 
286 2 51.5549 -6.01481 -7.14386 -0.0946372 0.0436507 -0.00932176 
72 2 46.5202 -3.66594 -10.9241 0.0165365 -0.0255196 -0.0371246 
42 1 46.2586 -0.34201 -11.6398 -0.00840333 0.00643221 0.000102546 
48 1 46.238 -1.89398 -11.6615 0.00497223 0.0114136 0.019343 
56 1 46.4712 -2.66243 -10.4588 0.0158522 0.0081444 -0.0210927 
287 2 47.2704 -4.6796 -6.27064 0.0389975 -0.0956388 0.00145225 
59 1 46.9227 -2.10702 -9.2171 0.00226506 -0.00667361 -0.0312257 
68 2 46.8604 -2.68108 -8.19938 -0.0697646 0.00916112 0.0118881 
46 1 47.2771 -0.621094 -9.49988 0.00902003 -0.00557282 -0.00575161 
67 2 48.9128 0.282745 -8.36006 -0.0440463 -0.0253071 -0.0133398 
284 2 46.4815 -4.29786 -3.43689 0.0184461 0.0556348 -0.0360052 
279 2 50.0851 -2.24229 1.12729 0.0460283 0.0230571 0.0121157 
281 2 55.1926 -3.06001 -3.29028 -0.0723265 0.00560563 -0.0644106 
276 1 49.8927 -4.92013 -6.68373 -0.00626372 0.0132579 -0.0163986 
274 1 51.0918 -5.62491 -6.47522 -0.00726179 -0.00466069 -0.021328 
285 2 53.9981 -6.48467 -5.54089 -0.0493429 0.0772821 -0.0209133 
263 1 51.9901 -5.00049 -5.41799 -0.0150949 -0.0249382 0.0259455 
273 1 53.4426 -5.33576 -5.32062 0.0146803 -0.00901189 -0.00808911 
61 2 46.3466 5.44613 -9.83079 0.000935643 -0.0312346 0.0190828 
37 1 46.6458 2.21778 -11.3837 -0.0156295 0.0246997 -0.0195546 
40 1 46.8799 0.145468 -10.5918 0.00513754 0.00657517 0.00504883 
38 1 46.8964 1.51082 -10.3169 -0.0140413 0.0362446 -0.00590885 
64 2 47.5859 1.71247 -6.62253 -0.0395952 0.0565197 -0.0433933 
55 1 47.7596 0.298511 -8.47089 0.0265533 -0.000389377 -0.0231557 
52 1 47.3276 1.51039 -7.79467 0.0011052 -0.00879003 -0.0390227 
44 1 47.0409 2.35723 -9.0509 -0.021014 0.000706741 0.0222103 
63 2 46.8239 4.82849 -8.50453 -0.0528425 0.0434253 -0.063371 
51 1 46.9442 3.68349 -8.9587 0.0137937 -0.0386135 0.0351873 
49 1 46.8042 4.43598 -10.2011 -0.00540349 0.00549058 0.0155232 
399 1 39.0013 10.8124 -11.5181 -0.00149748 0.0160474 0.0147953 
417 1 36.8676 9.25485 -10.6169 -0.00838564 0.00273763 -0.015028 
407 1 36.6033 10.3741 -11.5244 -0.0114516 -0.00488115 -0.00410006 
414 1 38.2112 8.78555 -10.1275 0.00190315 0.00959592 -0.00532055 
426 2 38.204 8.18398 -9.20909 0.00214914 -0.030381 -0.0204875 
405 1 39.2427 9.68754 -10.5854 -0.00482416 0.00370436 -0.029297 
278 2 54.5573 -3.74513 -0.816765 -0.00254306 -0.0032731 0.109861 
401 1 37.6568 11.3941 -11.6258 -0.00627036 0.00892263 0.0180265 
425 2 40.7704 8.14477 -10.3432 -0.0162661 0.056372 0.0193564 
413 1 40.6684 9.11579 -10.6336 -0.01615 0.00363418 -0.0253549 
422 2 42.8152 9.66433 -11.2215 0.0763581 -0.0336039 -0.0200014 
410 1 41.5241 9.85965 -10.8595 -0.000779403 -0.0199686 0.0149063 
403 1 41.1816 11.1321 -11.3024 -0.00332293 -0.0109234 0.0139715 
275 1 47.7225 -4.22178 -5.47273 0.00162783 -0.00927972 -0.0114975 
272 1 47.2138 -3.85031 -4.11107 -0.00682421 -0.0079097 0.01784 
283 2 47.5315 -1.01594 -3.9065 -0.00595451 -0.100484 0.0672392 
271 1 48.4053 -1.67769 -3.23214 0.00455498 -0.000949732 -0.00174311 
280 2 49.5321 -0.36176 -1.98706 -0.0197208 -0.050758 0.00374908 
268 1 49.3263 -1.35164 -2.20867 -0.00611952 -0.00643483 -0.0236788 
264 1 49.1425 -4.63277 -5.46134 0.0185266 0.0137335 0.00678426 
262 1 48.3339 -3.18888 -3.36501 -0.000714815 0.00924461 -0.000575405 
270 1 54.3926 -4.61887 -4.54208 0.0101108 -0.00773862 0.0161205 
257 1 51.4508 -4.59916 -4.24813 0.00788088 0.000606226 0.0117868 
258 1 50.0241 -4.60177 -4.34212 0.00352351 0.0272546 0.0189754 
254 1 50.448 -3.23532 -2.3097 0.0054523 -0.0204525 0.0377806 
253 1 51.6377 -3.89051 -1.99971 0.0263397 -0.0209859 -0.0104023 
256 1 49.5434 -3.83257 -3.1723 0.00199902 0.00847588 -0.00530589 
261 1 53.3543 -3.86904 -3.61799 -0.00319711 0.00463295 -0.00151615 
255 1 52.026 -4.40171 -3.12175 0.0280195 -0.00657066 0.0152312 
259 1 52.5887 -3.49912 -1.036 -0.0294326 -0.00567393 -0.0141951 
260 1 49.7947 -2.49843 -1.3636 0.00400827 -0.0270052 -0.0150359 
265 1 51.8394 -3.03408 0.135405 0.00405324 -0.0133792 0.00209291 
267 1 50.5161 -2.57667 -0.0397211 0.0185041 0.0195156 0.0108394 
277 2 52.0843 -2.46249 1.21593 -0.0543475 -0.0434355 -0.0179069 
269 1 54.2689 -3.0421 -2.85593 -0.00185033 -0.0175514 -0.0173028 
266 1 53.9652 -3.31261 -1.56924 -0.0167674 0.00122845 0.0209583 
43 1 46.9419 3.69526 -11.5408 0.00225525 -0.00576104 -0.0315073 
210 2 43.1859 -6.82236 20.3706 -0.00992405 -0.0121913 0.0312928 
105 2 42.3273 4.77874 21.0277 0.0553436 0.0246144 -0.0226859 
169 2 51.9716 11.8744 26.0322 -0.029039 -0.0249013 0.0126198 
540 2 39.1266 11.0038 34.1529 0.00761789 -0.0369338 0.0505219 
537 2 38.4276 11.3456 34.1571 -0.0105294 0.0785862 0.0541741 
57 1 45.1791 0.519228 33.1483 -0.000451709 -0.0214668 -0.0142802 
66 2 44.7103 0.475951 32.1612 -0.0078056 -0.0689532 -0.0660214 
47 1 45.0916 -0.319811 34.3943 0.00381783 0.014743 0.00157718 
58 1 44.6019 -1.64481 34.6363 0.00204343 0.00471964 0.0256484 
41 1 45.5973 0.403904 35.6423 0.00878764 0.000237162 0.0347499 
54 1 46.3633 1.47784 33.3391 0.00720914 0.0117189 -0.00203041 
69 2 46.085 1.86292 32.2765 0.0287859 -0.0228978 -0.116339 
45 1 46.4269 2.38243 34.4117 0.0123807 0.0105235 0.025873 
39 1 46.0008 1.76344 35.5413 0.0113395 0.0268564 -0.00010258 
53 1 46.8878 3.64436 34.0714 -0.0126471 0.0118066 0.0102025 
65 2 46.9802 3.77285 33.0457 -0.00459938 0.0405474 0.015196 
70 2 45.3625 -3.71452 35.173 0.0972999 -0.0433017 -0.00502 
50 1 47.1321 4.36787 35.183 0.00395113 -0.0071912 0.0331417 
62 2 47.7562 5.17728 34.693 -0.0287734 0.0282114 0.00432652 
60 1 45.3662 -2.45037 35.4724 -0.0119835 -0.0185046 0.00278324 
397 1 40.1517 11.5248 35.9327 -0.0144334 -0.0118481 -0.000270807 
409 1 42.2915 12.242 -11.1695 -0.0129333 -0.013411 0.0243936 
423 2 43.1947 12.7958 -10.5829 0.0179561 -0.0273783 -0.0210023 
161 1 49.4558 14.7037 30.457 0.00162743 -0.0196129 -6.48777e-05 
164 1 48.507 16.1816 22.9719 0.0106392 -0.0104576 0.00292268 
176 2 48.55 16.061 21.8668 -0.0254961 0.0524064 -0.0488472 
154 1 49.5632 15.8941 23.9733 0.0189029 0.00207931 -0.0130652 
163 1 50.8156 15.2611 23.4153 -0.0186988 0.00469359 0.0118154 
175 2 51.3705 15.658 22.6324 -0.0627907 -0.0593195 0.110603 
172 2 51.2732 13.0837 23.8841 0.0650025 0.0332461 -0.0644731 
167 1 47.9685 17.3376 23.6096 -0.00922577 0.000884972 0.0113123 
168 1 46.6191 18.1118 25.6565 0.0127642 -0.0221912 -0.00430107 
156 1 47.8391 17.5866 25.0965 0.0131971 -0.0140669 0.00944397 
155 1 46.9663 16.8745 27.8527 -0.0204314 0.00230909 0.00932392 