ITEM: TIMESTEP
960000
ITEM: NUMBER OF ATOMS
576
ITEM: BOX BOUNDS pp pp pp
-1.2000000000000000e+01 8.4000000000000000e+01
-1.2000000000000000e+01 3.6000000000000000e+01
-1.2000000000000000e+01 3.6000000000000000e+01
ITEM: ATOMS id type x y z vx vy vz 
106 2 -6.60987 -6.19595 -6.89946 -0.0409612 0.0148749 0.122497 
96 1 -6.66194 -7.02063 -6.05468 -0.0220609 -0.0125819 0.00998947 
107 2 -9.34284 -6.03647 -6.93951 0.0194513 -0.0494374 -0.0785816 
102 2 -5.16509 -6.04385 -6.11035 -0.0278127 -0.0471001 -0.0141343 
118 1 10.9219 1.63021 -2.72663 -0.00876251 -0.00640613 0.00341241 
76 1 -9.06872 -7.00703 -3.06505 -0.00865734 0.0238651 -0.00432016 
82 1 -10.2719 -6.26829 -3.79045 -0.0105156 -0.0018564 -0.00322578 
84 1 -7.97772 -7.2592 -5.34733 0.011333 0.0271213 0.00576782 
78 1 -8.08253 -7.5194 -3.92432 0.00849288 0.0247981 -0.00242265 
95 1 -9.24392 -6.75148 -5.90773 0.00938829 0.0140864 -0.00589485 
92 1 -10.4644 -6.70054 -5.19115 0.00558795 0.00369648 -0.00783553 
104 2 -11.1906 -6.60461 -6.19676 -0.138905 0.0785834 -0.0530806 
91 1 -11.1815 -5.46323 -2.8031 0.00764726 -0.00141351 -0.00605459 
77 1 -6.78696 -7.836 -3.34402 0.00959858 0.0179784 -0.00501836 
74 1 -9.54621 -7.51741 -1.81935 0.00462898 0.0215533 -0.00948927 
73 1 -8.19733 -7.62608 -1.1667 -0.0339642 -0.0140714 0.0132943 
355 2 -10.4334 -7.33663 -1.49281 0.0336084 0.021951 0.0489486 
75 1 -6.96212 -7.68127 -2.04254 -0.00857516 -0.0180575 -0.00848207 
94 1 -5.60047 -6.5704 -5.29074 -0.0159658 -0.00531686 0.01015 
83 1 -5.58353 -7.36399 -4.0622 0.014996 -0.000439329 0.000142185 
93 1 -4.38159 -7.34115 -3.18544 -0.0173816 -0.00435016 0.0224838 
90 1 -4.45872 -6.58008 -1.92509 -0.0124571 -0.0142258 0.00698335 
81 1 -5.79626 -6.84793 -1.17524 0.0481047 -0.00607711 0.00107092 
125 1 10.1488 -4.20605 0.194184 0.0347633 -0.021617 -0.0153397 
503 2 -5.49426 7.90865 4.24989 -0.0448451 0.0464841 -0.0105019 
101 2 -7.07342 -7.38499 2.09559 -0.00628887 0.0456024 0.0109062 
88 1 -11.8341 -4.96479 -1.6962 -0.0222741 -0.00488435 -0.0125375 
89 1 -6.05669 -6.3069 0.292513 -0.00177396 -0.00548483 0.00845703 
111 1 10.9604 -1.98672 -0.889979 -0.0361811 -0.030027 0.0214555 
109 1 9.67077 -1.40769 -1.21112 -0.00287301 -0.000572489 -0.00821319 
122 1 8.86568 -3.54358 0.0213407 0.0160041 0.0114412 0.0288194 
115 1 8.74109 -1.86979 -0.147078 -0.0140201 -0.0211735 -0.0126506 
121 1 7.71386 -0.991443 -0.122547 0.00652657 0.00279714 0.0280856 
117 1 11.3599 -3.38337 -0.451327 -0.0313649 0.0224525 0.00123315 
127 1 9.63344 2.40293 -3.09963 -0.000787836 0.0161618 9.99274e-05 
124 1 8.24425 1.83639 -2.84759 -0.0122592 -0.000897207 -0.0115476 
110 1 9.78925 0.198894 -1.47908 0.00541487 0.0171879 0.0140096 
116 1 8.3867 0.655373 -1.83233 0.00255109 -0.00342331 0.000180424 
139 2 6.7608 -0.253069 -1.9739 -0.0375635 -0.0477116 -0.0733177 
123 1 7.1936 0.281412 -1.02864 0.0146994 0.00437711 0.0130223 
496 2 6.37657 0.902378 -0.604472 -0.0588129 -0.0440971 -0.0335574 
112 1 10.9762 0.853938 -1.47115 -0.0368765 -0.0240545 -0.0133477 
134 2 10.2645 -5.14633 0.398258 -0.0485401 0.0720856 -0.0866456 
137 2 7.85818 -3.73532 0.260782 -0.0337477 0.030501 -0.102486 
79 1 -8.17267 -7.34664 0.340432 -0.00794699 -0.0348678 0.0201364 
97 2 -9.18838 -7.42175 0.977986 -0.0273015 -0.045632 -0.0246388 
86 1 -7.08953 -6.76555 1.19036 -0.000908271 -0.0146342 0.00062912 
140 2 11.7942 3.20672 -3.12288 -0.0214433 0.0732689 0.0326085 
431 2 -8.90215 7.58875 -11.996 -0.0386554 -0.0456397 0.00747574 
100 2 -0.496189 -1.06853 12.4547 0.0496837 0.00477869 -0.0995183 
494 2 2.28039 -0.423462 15.1794 0.00260093 0.0611314 -0.0243529 
108 2 5.17006 -0.592577 15.5035 -0.0605372 -0.0682478 -0.0463017 
482 1 3.89302 -1.57349 14.7098 0.00107764 -0.0208579 -0.0172231 
485 1 5.09411 -1.23265 14.7028 0.0349295 0.00306896 0.0118751 
80 1 0.828197 -2.32782 13.9993 0.00121594 -0.00875158 -0.0191708 
475 1 2.67899 -1.69987 15.1636 0.00149331 -0.00375852 -0.0064514 
87 1 1.84393 -2.73664 14.5009 -0.0268571 -0.00752826 -0.00354505 
99 2 1.8174 -3.88686 14.3569 0.0359663 -0.0104694 -0.0481844 
85 1 -0.011143 -1.48936 13.3322 0.0271842 -0.0451443 -0.011495 
498 2 5.97429 -1.79267 14.1536 -0.0151589 0.082463 0.0213355 
105 2 1.18244 8.2103 32.2558 -0.03253 0.00525176 0.0495402 
466 2 0.432651 8.06514 32.857 0.0419127 -0.0364208 0.0723271 
411 1 -3.82706 10.9536 34.3402 0.00506192 0.0149866 -0.0222252 
416 1 -7.83774 9.03817 35.6341 0.000903939 0.0218594 0.00456578 
415 1 -7.20717 11.9802 35.4966 0.00431851 0.00746964 -0.00507125 
406 1 -7.12556 10.4453 35.4206 0.00686952 0.00281092 0.0114711 
412 1 -5.85278 10.0793 35.4683 0.0104183 0.00461942 0.00431262 
419 1 -8.46359 8.06393 35.0701 0.0235599 0.00875916 -0.00254559 
424 2 -5.61333 8.92864 35.4197 0.0356689 0.0739836 0.0236933 
404 1 -5.04543 11.1416 35.0925 0.00949239 0.0223509 -0.00510281 
428 2 -8.18293 7.76867 34.094 0.0843223 -0.14377 -0.105471 
427 2 -3.41144 9.93349 33.9756 0.0881768 0.0214773 -0.0598846 
426 2 -8.50249 13.8394 -10.6054 0.0300628 -0.0997705 -0.0157075 
403 1 -2.37004 13.7847 -11.8063 0.0136533 -7.86651e-05 0.0102033 
14 1 -3.98337 15.1501 -8.36754 -0.0157007 -0.00295087 0.0258158 
410 1 -3.71236 14.537 -9.43656 -0.027703 0.0192119 -0.0372571 
233 1 -0.154902 18.1329 -6.21631 0.0283435 0.0132918 0.0057628 
218 1 -0.334493 18.6418 -11.0621 0.0165573 0.0002846 -0.00486697 
223 1 0.171163 17.8842 -8.83911 0.0118454 0.00601074 -0.0209714 
230 1 -0.678533 17.9518 -7.56792 -0.00598374 -0.0114798 0.0232728 
245 2 0.677048 18.4574 -5.58036 -0.000718254 0.0275341 0.00207628 
422 2 -4.52695 15.7194 -7.65228 -0.0275532 0.0631149 0.00338282 
413 1 -3.04609 14.0396 -10.5711 -0.022304 0.0113311 0.00513483 
402 1 -9.1926 13.2968 -11.2368 -0.00568483 0.0128758 -0.00505158 
400 1 -8.46536 12.4752 -11.9374 -0.00239657 0.0019339 -0.00535628 
241 2 1.85945 16.4331 -8.85349 -0.0192554 -0.0989909 0.0244701 
229 1 1.10295 16.6708 -9.53352 0.0223696 0.0259717 0.00150536 
224 1 0.723605 17.9005 -11.6385 -0.00601568 0.00619001 -0.0160625 
231 1 1.53569 16.9383 -10.8294 0.0329861 -0.0153858 0.0172153 
243 2 2.55689 16.2666 -10.6849 -0.0375109 0.0946764 -0.0335074 
357 2 -5.86867 18.9965 -9.23056 0.106261 -0.00330637 -0.0979479 
217 1 -0.465329 18.9419 -9.59369 -0.000410222 -0.00795153 -0.00784942 
225 1 -2.06239 18.3991 -7.91352 0.00666308 -0.00971152 0.0277732 
219 1 -1.74695 19.0643 -9.14435 -0.0265263 0.0177584 0.0114009 
249 2 -4.47003 20.5399 -7.43338 -0.0226417 0.0220822 -0.0434692 
221 1 -2.83886 19.3565 -10.0228 0.000295174 0.0249695 0.0150103 
246 2 -3.57804 18.6628 -5.9621 -0.0668391 0.0421231 -0.03544 
234 1 -3.22915 18.7487 -6.96763 0.00499314 -0.0156351 -0.0206595 
237 1 -4.1783 19.4507 -7.86129 0.0125314 0.00148781 0.0155743 
227 1 -4.12837 19.2705 -9.42429 -0.0282839 0.00496295 0.00059118 
222 1 -2.66145 19.0352 -11.396 -0.0177015 -0.00499479 0.010053 
238 1 -5.32533 19.1223 -10.2754 0.011831 -0.00310198 -0.0102875 
242 2 -1.12671 18.1467 -5.90903 0.0636747 -0.0229775 -0.0384564 
240 1 -5.3204 19.093 -11.7138 -0.0201363 -0.0108903 0.0121694 
220 1 -1.4533 18.8712 -11.931 0.0139334 0.0227638 -0.0106366 
502 2 -8.67743 32.4652 11.8682 0.0222205 0.0469783 0.00273096 
252 2 -6.08132 19.6234 -12.0374 0.0782168 0.0683997 -0.0697335 
492 1 -8.12209 28.9136 13.0444 0.00130944 0.0201952 -0.010171 
474 1 -9.96865 28.8719 17.5917 0.026696 0.00437644 0.0263618 
480 1 -8.90552 28.9102 14.2996 -0.00354908 0.00882989 -0.00800683 
473 1 -9.47114 29.1017 15.4467 0.00340161 0.050756 -0.00843644 
490 1 -10.6046 28.7539 16.2528 0.00707627 0.0221293 -0.0194413 
532 2 5.94097 25.8626 34.6064 0.021851 -0.100259 -0.0650893 
479 1 -10.7798 30.0387 18.1279 0.0302188 -0.018167 0.047308 
500 2 -8.3609 27.4102 18.1697 -0.0339464 0.0528917 0.0177185 
491 1 -8.70578 28.3772 18.2811 0.0225777 0.0138063 0.0149149 
488 1 -8.76727 28.355 19.6913 0.0154527 0.00190749 0.00319184 
501 2 -8.47013 27.8537 20.687 0.0135949 -0.0143611 0.00228553 
477 1 -9.44078 29.6813 20.0202 0.020348 -0.00053174 -0.0202712 
471 1 -10.7542 30.0581 19.6312 -0.0225467 0.0257081 -0.0134912 
17 1 -4.9677 13.5436 35.1799 0.00616885 0.00170397 0.00355111 
547 1 6.10921 23.7737 29.2764 0.0482181 -0.000851765 -0.00660246 
554 1 5.31766 24.0727 28.267 -0.0211404 -0.00418437 0.0113104 
557 1 4.13211 25.2079 28.2165 -0.0268826 -0.00462828 0.0199308 
549 1 4.26297 26.3062 28.9022 0.00472669 0.00591507 -0.00484351 
566 2 3.97641 28.3886 28.8851 0.101491 0.0393737 -0.0129533 
558 1 4.45819 27.5575 29.4189 -0.00174022 -0.0026057 0.0273143 
569 2 7.57524 25.9259 28.9379 -0.107619 -0.0778212 0.0151867 
561 1 5.54884 27.4597 30.2049 -0.0150215 -0.00239659 0.0112376 
543 1 7.73409 25.8948 29.9857 0.0136828 0.00146479 -0.0338271 
248 2 -9.70271 27.1312 16.2168 -0.0051494 -0.0316927 -0.0290466 
399 1 -10.7905 15.8031 35.3493 0.0121415 0.0142815 0.029571 
401 1 -9.65379 14.9477 34.9521 0.0310717 0.0121879 0.0030379 
408 1 -10.2832 13.8288 35.8964 0.00496909 -0.00277907 0.00927781 
314 2 -7.96543 28.0522 12.3933 0.0516868 -0.0278409 0.102074 
486 1 -8.49571 31.4457 12.2175 0.00951595 -0.0110445 0.0102313 
397 1 -3.52029 13.2272 35.2524 -0.00987681 -0.00798271 0.0169202 
388 2 -4.88145 18.6508 34.2979 0.0976871 0.0656582 0.0278963 
472 1 -11.9042 29.5456 16.2636 -0.00283558 0.0139343 -0.0119971 
247 2 -0.469342 17.0988 33.2685 -0.0113629 0.0266615 -0.0251682 
232 1 0.662885 17.8362 34.9603 -0.0424586 0.00708617 -0.0166899 
235 1 -0.615866 17.4628 34.2357 -0.00492877 -0.0117754 -0.010077 
244 2 1.24855 18.6517 34.3036 0.0222023 0.0198092 -0.0727585 
226 1 -1.73368 18.1712 34.6609 0.00354334 -0.000497639 0.00180436 
239 1 -3.02263 17.6314 33.9388 -0.010492 0.0044919 -0.00945329 
251 2 -3.13206 16.8375 33.272 0.122169 0.00012225 -0.164486 
228 1 -3.912 18.8095 35.8753 0.0141246 -0.00147929 0.0415336 
177 2 10.0441 21.718 29.9508 -0.0180972 0.00425352 0.0838272 
398 1 -5.88609 12.3802 34.7554 0.0133988 0.0120507 0.00379647 
236 1 -3.8539 18.6149 34.4834 -0.0274799 -0.0137508 0.0348281 
425 2 -5.41373 14.5023 35.727 0.0327858 -0.0867381 -0.00104719 
565 2 4.80084 21.8248 29.4012 0.0456764 0.000134463 -0.0638679 
548 1 5.3577 22.2061 31.4564 0.00304518 -0.0068332 -0.0130944 
553 1 5.10472 22.5609 30.0544 -0.0142309 0.00165306 -0.0210793 
176 2 -10.198 26.6657 16.5812 0.0632945 0.00799346 0.12695 
555 1 6.85533 22.4244 31.5976 0.00082983 -0.002212 -0.00590332 
568 2 6.63259 20.8078 32.8844 -0.0496765 0.00844812 -0.0638125 
571 2 8.28351 20.7786 34.2523 -0.055275 0.0665327 -0.0745103 
556 1 7.3553 21.4261 32.5304 -0.00219336 -0.00319881 -0.00530719 
559 1 8.51664 21.4262 33.3718 0.00462863 -0.00773699 0.00453553 
550 1 9.10999 22.822 33.5732 0.015887 0.0292738 0.017734 
542 1 7.0614 23.9967 31.684 -0.000130658 -0.00714028 0.0144042 
560 1 9.62799 23.7627 32.5068 -0.00125623 0.00492951 -0.00999707 
563 1 10.7659 22.502 30.3888 -0.0206763 -0.00851487 0.00461847 
552 1 10.3253 23.4301 31.341 -0.00913516 0.0336762 -0.0291468 
567 2 4.5184 23.6985 30.0132 0.0143351 0.0527958 -0.00913431 
551 1 6.73604 27.8244 30.7692 0.00308423 -0.0188836 0.0176749 
576 2 7.3165 24.9998 34.2584 -0.0381982 -0.0517787 -0.0430286 
564 1 7.50962 26.6855 33.0489 -0.00131069 -0.000172909 0.0074714 
562 1 6.98935 26.1365 34.3176 0.00380277 -0.0112098 0.00283548 
541 1 6.6747 24.6858 30.5027 0.0255745 -0.0246852 -0.00982484 
573 2 6.46431 28.9753 31.1717 0.035975 0.0595448 -0.0820919 
545 1 7.88458 26.8436 31.0227 -0.0267767 -0.00400513 -0.0010944 
546 1 8.28738 25.9788 31.9974 0.00942008 -0.000698681 0.0296403 
544 1 8.46067 24.5384 31.9549 0.00183816 -0.00241826 -0.0141519 
421 2 8.02224 27.6154 33.1126 0.0201543 0.0213505 -0.0699958 
489 1 -8.35184 30.1747 12.24 0.0126297 -0.01251 0.0253686 
418 1 -11.5728 13.1214 35.6445 0.0083584 -0.0263689 0.0152122 
278 2 4.12087 28.532 33.7188 -0.0166749 -0.0995623 -0.0801291 
423 2 -2.13648 12.1357 33.7481 -0.0204048 -0.0118621 0.0832962 
283 2 3.44008 28.7897 33.5951 -0.0689997 -0.0851392 -0.116178 
572 2 11.6628 22.926 29.9253 -0.00589476 0.056512 0.0560314 
409 1 -3.0655 12.1327 34.3264 -0.00423011 0.0251871 -0.00697409 
29 2 -1.55559 14.1115 35.5821 -0.0576552 -0.0472677 0.0419457 
287 2 15.4113 10.9173 -6.44726 0.119894 -0.0329855 0.0837178 
33 2 15.6719 10.3716 -5.90993 -0.0669286 0.100258 -0.0286754 
336 1 26.3343 -11.7131 11.1662 -0.0126784 -0.0206823 -0.0192824 
113 1 12.1882 -1.37357 -1.32751 -0.00570336 -0.00823538 -0.0066369 
114 1 12.2998 0.090744 -1.49805 -0.0327938 -0.00793368 -0.0144151 
132 1 14.7555 -0.370681 -1.79657 0.0161162 0.000813357 0.00678701 
142 2 15.686 -2.24287 -2.41784 -0.0497957 0.102119 0.0366755 
119 1 13.5782 -2.21783 -1.56614 -0.0266614 0.00307342 -0.0285123 
130 1 14.7583 -1.76768 -1.98812 0.0107869 -0.00368167 -0.0013979 
126 1 12.2909 -4.19623 -1.10382 -0.0100809 0.0145551 -0.00322329 
129 1 13.0633 -3.57846 -2.13914 0.00987193 0.0152469 0.000691719 
120 1 13.5389 0.545679 -2.18695 -0.0262099 -0.00975728 0.000921772 
189 1 33.4677 11.7202 -0.546417 0.00582959 0.0118571 -0.00431552 
138 2 12.7066 -5.25129 -1.23196 -0.0755568 -0.0839214 0.00851536 
128 1 12.1108 2.35881 -2.39034 -0.00433338 0.00863386 -0.0241367 
131 1 13.2847 1.7781 -3.00859 -0.0290115 0.0129417 -0.00260151 
143 2 13.8989 2.44612 -3.75664 -0.0597108 0.0506067 -0.0860326 
198 1 32.3893 10.8285 -0.794494 0.000121468 0.0070798 0.0153086 
197 1 34.2329 11.8084 0.76016 0.00061349 0.0189825 0.00512305 
170 2 16.7209 3.26168 -1.50525 0.0236981 -0.114005 -0.00288479 
201 1 31.677 11.4125 -2.1173 0.0196371 -0.0194077 -0.00878335 
133 2 32.0058 10.5331 0.353655 0.0541612 -0.00514363 0.0271094 
64 2 15.988 3.68259 -1.18246 0.104293 -0.0439694 0.0515305 
141 2 14.1294 -3.86291 -2.59864 -0.0633629 -0.0891636 -0.0503264 
209 2 33.5608 11.2985 1.50182 -0.0115869 0.00412968 -0.048949 
214 2 30.8765 10.5105 -1.71792 -0.0454605 0.0161648 -0.051613 
359 2 25.0569 -9.71544 10.6545 -0.0426988 0.0230225 0.00588171 
347 1 25.4434 -10.5755 11.3424 0.00882814 -0.00596225 0.001152 
98 2 35.8641 0.313916 -11.2472 -0.000306483 0.0304136 0.029042 
213 2 31.1887 11.8264 -3.96638 0.0369885 -0.0145213 0.0235477 
343 1 24.5482 -11.6915 14.9552 -0.0179201 -0.00869165 0.0130193 
344 1 24.7213 -10.6314 12.5683 0.00723363 0.000307186 0.00618237 
356 2 23.9079 -9.82594 12.8865 0.00622449 -0.0362135 -0.0347518 
328 1 26.631 -11.8825 13.811 0.00906986 -0.0146312 -0.0122796 
385 2 30.9087 -11.2552 24.7793 0.0245801 -0.0321102 0.0705031 
330 1 27.1627 -11.603 12.3752 -0.0222476 5.8075e-05 -6.92952e-05 
334 1 25.2517 -11.5195 13.6768 -0.00355319 0.00055321 -0.00462593 
570 2 31.6548 -11.9246 24.9842 0.000760205 0.0415111 0.0304462 
204 1 28.8198 13.3875 -5.94758 -0.00418349 -0.00498472 0.014279 
212 2 28.8772 12.2158 -6.17896 0.0142195 0.0316571 0.0960506 
202 1 30.2423 13.6652 -5.58414 -0.027633 -0.00971423 -0.00448057 
192 1 31.4189 14.0137 -5.46157 0.0125333 -0.0120045 0.0033361 
215 2 34.4202 15.0372 -7.14343 0.0230596 0.0247373 0.00192825 
200 1 33.9974 14.5842 -6.11699 0.0168803 -0.0178547 -0.00702746 
16 1 22.1445 27.6366 -11.1366 0.0103769 -0.00455291 0.00508319 
28 2 22.1681 28.191 -10.1544 -0.0426136 0.0344409 0.0279771 
1 1 22.9126 26.6761 -11.7415 -0.00746874 -0.00536895 0.00497873 
25 2 25.4639 26.4681 -7.57389 -0.00307183 -0.0275407 0.0563747 
13 1 25.1536 26.7135 -8.72632 0.00119486 0.0129551 0.000114944 
15 1 25.0531 26.639 -9.75798 -0.021845 0.0232982 -0.0108248 
8 1 24.3096 26.2183 -11.2713 -0.00462802 0.0109031 0.0155458 
31 2 20.0355 28.7339 -10.9147 -0.0356356 -0.0353754 0.0519306 
203 1 32.9155 14.003 -5.31661 -0.0130484 -0.00103512 0.0106822 
181 1 35.3061 13.0215 -1.94465 0.013325 -0.00833991 0.00407264 
185 1 33.2875 12.4342 -3.04462 -0.0168037 0.00889173 0.0295257 
191 1 31.7882 12.0922 -3.22855 0.0239811 -0.0312181 0.00741543 
360 2 24.6631 35.7857 10.0432 0.0184519 -0.0666154 -0.0399953 
184 1 35.047 13.7738 -4.32971 -0.00975283 -0.00566118 0.0280966 
186 1 33.7035 13.1462 -4.29678 0.00169027 0.00106836 -0.0136096 
182 1 35.899 13.3947 -3.35445 0.0070165 -0.0156934 -0.0330265 
183 1 34.0755 12.3863 -1.78209 0.00493176 0.00191302 -0.0136272 
284 2 14.1148 24.0015 1.88667 0.0307378 -0.0930218 -0.0125414 
190 1 35.2637 14.5572 -5.48946 0.00104015 0.0225737 0.0155162 
216 2 29.4845 33.261 9.26005 0.0230737 0.118639 0.0191259 
346 1 27.014 34.7481 9.85339 0.0084333 -0.00130821 -0.00517242 
345 1 29.1959 33.8852 10.2036 0.0274419 0.0206048 0.00638713 
354 2 30.4373 32.4177 10.8304 0.0148225 -0.0979935 -0.0332259 
358 2 27.0797 34.2886 8.86377 0.0309086 -0.0354528 0.0250166 
342 1 29.8992 33.2007 11.2686 0.0204948 0.00156937 0.00532311 
335 1 28.1767 34.8697 10.476 0.0129249 0.0123221 0.00752904 
19 1 20.7981 28.2551 -11.5102 -0.00805999 0.00408072 -0.0169956 
329 1 28.2917 35.5744 11.9412 0.0059481 0.00730013 0.00644757 
194 1 35.6434 12.0263 0.389262 0.0138018 -0.033454 -0.00329334 
210 2 13.9331 24.1978 1.1193 0.0512145 -0.1168 -0.0307966 
7 1 25.2402 25.4591 -11.7399 -0.0247485 -0.0188698 0.00210524 
348 1 25.7154 35.3484 10.3036 0.0047167 0.00164147 0.00851934 
27 2 26.045 24.4707 -11.8274 -0.0542203 0.0417296 -0.0412808 
338 1 30.1099 32.9515 14.4991 -0.00419809 0.0158584 0.00789447 
341 1 29.2464 32.1279 13.6265 0.0165108 -0.00325777 -0.0267803 
332 1 26.5147 34.8591 15.8903 0.0112328 -0.0166758 -0.00814939 
333 1 29.1977 33.2239 12.5759 -0.00275391 -0.00601843 -0.000553941 
331 1 29.504 33.9807 15.0774 0.0196247 -0.00814703 -0.0119648 
327 1 28.5679 34.5408 12.9198 -0.00419904 0.000648073 0.0112477 
325 1 28.5428 34.8211 14.4789 -0.00577421 0.00605604 0.020356 
337 1 28.4711 33.767 16.4409 -0.0105862 -0.0355992 -0.00627627 
350 2 30.6645 32.4516 15.2827 0.0235474 0.0128184 0.0150318 
353 2 29.0781 31.0573 13.4582 -0.0629318 -0.0234312 -0.108471 
349 2 27.9336 32.7914 16.7937 0.0341493 -0.095893 -0.0458884 
351 2 27.645 35.6451 17.745 -0.0189683 -0.0425628 0.0528168 
34 2 20.7538 27.8052 29.4524 -0.142598 0.049044 0.00409178 
22 1 21.297 27.6467 30.395 -0.00147817 0.0334145 0.0138711 
30 2 22.6624 25.397 29.4569 -0.112809 -0.0947014 0.0381334 
21 1 22.9328 25.6766 30.4728 0.00695235 -0.0112696 -0.00591108 
18 1 23.223 24.9197 31.3688 0.00820707 -0.0137089 0.0097609 
36 2 19.9658 29.3052 31.0441 0.133003 -0.0669988 0.0643883 
24 1 21.0703 28.7886 31.1478 -0.0222483 0.0210944 0.00129967 
11 1 22.6822 27.1988 30.5992 -0.021413 -0.00534052 0.00160284 
9 1 23.2486 25.8235 32.6919 -0.00973888 0.00808034 -0.00413583 
2 1 22.4981 26.5127 34.814 -0.014858 0.0376426 -0.0111402 
5 1 22.8961 27.1252 32.1648 -0.0192989 0.0079563 0.0119068 
6 1 22.2334 27.8909 33.2103 0.00814656 0.0178399 0.00537016 
12 1 21.2426 28.6903 32.522 0.0208595 -0.00912491 0.0163863 
23 1 20.0366 29.3605 33.1886 0.0172211 0.0143168 0.00769359 
32 2 18.6897 29.4458 34.9642 -0.0711393 -0.0409567 0.00693364 
20 1 19.544 29.1261 34.4894 0.0137584 -0.0160042 0.0374037 
10 1 20.8218 28.3773 35.0252 0.00651278 -0.00186397 -0.00492784 
26 2 23.3488 23.9007 31.2238 -0.154368 -0.00820657 0.000775474 
4 1 21.8075 27.6136 34.5254 -0.0059114 0.00602298 0.0125344 
3 1 22.6365 25.3133 34.0157 -0.0169999 0.0146715 -0.00617775 
340 1 25.3002 35.6468 16.0809 0.00125347 -0.010574 0.0112327 
339 1 27.4595 34.8067 17.0197 -0.005996 -0.00166095 -0.0137853 
326 1 27.3589 35.5597 14.9288 -0.0335714 -0.00172141 0.0155786 
207 2 38.4824 11.9432 -3.57251 0.0919311 0.0898179 0.00643743 
71 2 40.0889 -11.5237 9.89864 0.0560415 -0.0498197 -0.0656233 
504 2 39.5969 -10.9828 9.97464 0.065066 -0.0540337 0.0333507 
208 2 37.7619 11.7444 -1.00464 0.0924983 -0.0419818 -0.0731032 
447 1 45.3654 -10.7508 18.226 0.0362219 0.0170665 -0.0145231 
445 1 44.9002 -10.443 16.8529 0.00402139 -0.000385244 -0.0118825 
459 2 45.5358 -10.1586 15.9778 -0.0417719 0.000224708 0.0698766 
458 2 44.4877 -8.15058 15.5103 0.0985779 -0.0608196 -0.0121562 
446 1 43.4942 -8.09958 16.0776 0.00396533 -0.00893919 0.0239454 
439 1 43.8218 -9.42488 16.9214 0.00532249 -0.00586122 -0.0121283 
449 1 42.0941 -7.62292 15.9699 -0.00745273 0.00202399 -0.0128072 
464 2 41.8703 -8.01845 14.9849 0.0123673 -0.123647 -0.0547966 
435 1 41.6114 -8.51019 18.3823 0.0210642 0.0120041 -0.0190882 
436 1 41.9812 -10.9977 19.807 0.00321499 0.0144025 -0.000734548 
437 1 40.8649 -8.49481 19.5412 -0.00350629 -0.00958004 0.00526683 
438 1 41.0417 -9.88856 19.9489 -0.000522015 -0.000568958 0.0112007 
456 1 39.8423 -8.61762 21.3868 -0.00797905 -0.00555032 0.0174812 
455 1 40.0549 -11.1594 21.8889 -0.0198339 0.0203284 -0.0167238 
444 1 40.0463 -9.91406 20.9704 0.0304913 0.00437627 -0.0260363 
454 1 39.985 -7.79662 20.2838 0.0193712 -0.0268793 -0.00749409 
468 2 39.1818 -8.69146 22.2072 0.0288252 -0.0507846 -0.00749886 
441 1 41.6196 -7.50184 17.347 -0.00974078 -0.00839312 -0.00984156 
461 2 41.1835 -6.48694 17.4385 -0.0698781 -0.0294968 -0.0276078 
443 1 40.3704 -6.35576 21.0455 -0.00594996 -0.00299795 -0.00157464 
434 1 42.8419 -10.9495 18.6864 0.0028932 -0.00614466 -0.0055368 
440 1 44.1804 -11.5989 18.7484 -0.00541143 -0.0186512 -0.0111717 
433 1 42.6444 -9.71166 17.8664 -0.0189063 0.00844061 0.0216997 
465 2 40.396 -5.51001 21.901 -0.0133861 0.00370555 0.082536 
453 1 40.4359 -5.63328 20.0719 -0.017451 -9.94084e-05 -0.0394307 
450 1 40.5644 -4.93172 18.7706 0.0158373 -0.0130652 0.0101999 
462 2 39.9529 -4.3712 18.1069 0.0104339 0.0543588 -0.0285185 
497 2 54.5852 8.42641 21.222 0.0405161 0.0073102 -0.0019779 
457 2 46.4662 -10.8352 18.5726 -0.0565331 -0.00787569 0.00149952 
70 2 37.7839 -10.9284 34.8567 0.0578538 -0.00866799 -0.0936905 
211 2 37.1977 14.7016 -7.18429 0.0260144 -0.0315958 -0.0041469 
35 2 37.1833 25.2747 -4.66807 -0.0279444 0.117044 -0.126817 
199 1 36.8022 14.668 -6.05208 0.0129619 -0.0120293 0.00744406 
196 1 37.5888 14.6087 -4.89235 -0.00964171 -0.0012942 0.0138075 
188 1 37.1334 14.0618 -3.43141 -0.0324582 0.0147884 0.00219854 
187 1 36.2006 12.656 -0.886107 -0.00261972 0.021604 -0.00869624 
195 1 38.1535 12.9432 -2.81513 -0.0102756 0.0171413 -0.00753772 
539 2 50.6053 31.4448 1.47752 -0.157755 -0.00115647 0.0176487 
179 2 51.1708 31.5271 1.70423 -0.152863 -0.0145073 -0.0581777 
205 2 38.3626 13.9571 -2.20769 0.0471465 0.0480209 -0.0239228 
193 1 37.2435 12.2393 -1.68521 -0.00519224 0.0138161 0.00753626 
206 2 36.5597 11.8934 1.07792 -0.070491 -0.0392593 0.0947903 
66 2 47.4539 24.3524 30.5374 -0.0159299 -0.0199782 0.0330922 
67 2 43.2092 20.0219 23.4023 0.040172 0.0509531 -0.0396482 
63 2 43.183 23.6905 24.0848 0.0400692 -0.00882921 -0.0209425 
62 2 43.1584 24.8808 31.3713 -0.00677356 0.0598181 -0.0370294 
467 2 40.8127 35.1665 22.597 -0.0312802 0.01138 -0.0792182 
452 1 41.0458 35.8919 21.7238 -0.00330736 0.0286646 -0.00420965 
460 2 44.6146 34.0723 19.9412 0.064385 0.031232 -0.0350919 
463 2 43.1019 33.8705 20.9552 0.0487858 0.0250292 0.0285805 
451 1 43.0383 34.9524 20.3248 0.0239362 -0.000267383 0.00175436 
448 1 44.316 35.2639 19.6915 0.0281994 -0.0184733 0.0144115 
72 2 44.1506 17.533 24.6213 -0.0148095 -0.00387731 -0.00599333 
51 1 43.1609 22.9914 24.8017 -0.021858 0.0033471 0.0331463 
55 1 43.7177 20.521 24.345 0.014077 0.00861116 0.00120338 
59 1 44.5128 18.4246 25.5393 0.0156723 0.0137448 -0.00640107 
56 1 45.9397 18.3424 25.9154 -0.00068963 -0.00368304 0.0134423 
52 1 43.4349 21.7327 24.7548 -0.0259514 0.0224041 -0.0141994 
46 1 44.2034 19.838 25.7073 0.0082852 -0.0198421 0.00268871 
40 1 44.5554 20.8257 26.5878 0.00327797 -0.00250714 0.00122449 
44 1 43.2305 23.2009 26.3507 -0.0102226 -0.00644881 0.000885439 
42 1 45.6841 20.5246 27.376 0.0101405 0.023274 0.0169569 
38 1 43.7734 21.96 27.155 0.0148609 -0.0131467 0.0217456 
37 1 43.9708 22.5588 28.3534 0.00940621 0.016479 -0.0274826 
41 1 46.423 21.253 28.3286 -0.0138768 -0.00124598 -0.0234745 
43 1 42.9469 23.5356 28.5148 -0.00967295 -0.0128943 -0.00303462 
39 1 45.414 22.4681 28.7562 0.00592366 -0.0142772 -0.0108674 
48 1 46.4021 19.3192 26.9988 -0.00470932 0.000644939 0.00312911 
45 1 45.9493 23.3129 29.9206 0.00441865 -0.00368491 0.0210073 
58 1 47.7973 21.5283 27.9549 -0.0156282 -0.0261256 0.0141672 
47 1 47.4852 23.4498 29.7756 0.00862258 0.00249679 -0.011019 
57 1 48.2835 22.7464 28.7659 0.0115107 -0.0125687 -0.00236998 
60 1 47.952 19.3204 27.0698 0.0001603 -0.0117627 0.00652449 
54 1 48.8572 20.4163 27.3907 0.0108523 0.00132645 -0.000902094 
69 2 49.9248 20.2345 27.2586 0.0193757 -0.0217498 -0.00893732 
49 1 42.5157 23.8257 27.2572 -0.00256079 -0.0145397 0.000318965 
50 1 42.4516 23.9966 29.7349 -0.0269165 0.01195 0.00882702 
61 2 41.3768 24.9498 31.5619 -0.0367731 -0.0695506 -0.0104004 
53 1 42.1979 24.51 31.0502 -0.00692024 0.030431 0.00967003 
65 2 45.5467 23.1937 30.9402 0.0701178 0.0802956 -0.0559397 
442 1 42.123 35.9785 20.4909 0.0042779 -0.00308495 -0.00715988 
103 2 83.8067 -5.39858 -0.712159 0.102472 -0.041127 -0.0333767 
537 2 68.5031 -5.09847 13.8761 0.0219459 0.0671559 -0.0178568 
540 2 68.1419 -5.58118 13.1977 -0.0140716 0.0194479 -0.0524855 
432 2 81.7181 2.90384 14.2961 0.0517351 0.00660682 0.00666134 
68 2 66.7244 7.52158 31.5639 -0.104669 0.00342432 0.0691776 
367 1 77.9524 21.0564 9.08059 -0.0222561 0.00120872 -0.012854 
366 1 76.8282 24.9945 10.2131 -0.0234016 0.00876544 -0.0129532 
372 1 75.991 26.0531 10.5916 -0.0140443 0.0210386 -0.0113198 
364 1 76.2664 24.5204 9.17361 0.00623063 -0.0103987 0.00244711 
250 2 81.9259 16.1669 -10.9105 -0.0314246 0.0596014 0.0216319 
405 1 82.5339 15.5754 -11.7466 0.0087605 -0.0195084 -0.0113109 
280 2 72.7415 30.3686 -8.12922 0.0449609 0.00277116 -0.0350212 
268 1 73.3358 30.5973 -8.98201 -0.0259004 -0.00101845 -0.010471 
271 1 73.1747 29.9792 -10.2209 -0.0103617 0.0117169 -0.00541506 
262 1 73.9122 29.9634 -11.4773 0.0214775 -0.00611614 -0.00538064 
279 2 74.1853 31.9476 -7.12961 -0.0233725 0.00864132 0.0166072 
260 1 74.3204 31.6698 -9.11335 0.00201699 0.0132491 -0.0342552 
267 1 74.4645 32.5864 -7.92212 0.00802865 0.0194901 0.0258518 
255 1 77.1386 32.4287 -11.2581 -0.00667103 -0.0126832 0.00850756 
253 1 76.253 32.8973 -10.229 0.016249 0.010652 -0.0033811 
266 1 78.2642 33.1618 -8.99702 -0.00816885 -0.0245229 -0.0145103 
277 2 75.494 34.6993 -7.7816 0.109878 -0.0471796 0.0327691 
259 1 76.6741 33.2942 -8.81659 0.0111217 -0.0300245 0.0029761 
265 1 75.583 33.5227 -7.81676 0.0144548 0.0196973 -0.0320491 
254 1 74.9115 31.8999 -10.3648 0.0151642 -0.006118 -0.000245758 
256 1 74.6333 31.2988 -11.5809 -0.0109683 -0.0207441 0.0128326 
370 1 74.8143 24.5518 8.83759 0.0280033 -0.0201228 0.0165504 
392 2 74.0986 27.528 9.87546 0.0501011 -0.0546566 0.0106156 
269 1 79.3218 32.97 -9.82294 0.0152798 -0.0155823 -0.00480127 
261 1 78.701 32.6381 -11.1265 -0.0179619 0.0111898 -0.0199713 
270 1 79.6557 31.918 -11.7768 0.00957599 -0.000246974 0.0211919 
379 1 74.6263 24.2604 7.46213 0.0104173 0.00568099 -0.00205707 
281 2 80.3419 33.1066 -9.60434 -0.0472257 -0.0123148 0.0150925 
285 2 80.6422 31.9536 -11.6854 -0.00515043 -5.36127e-05 -0.0268655 
387 2 76.4787 20.6121 5.87509 -0.00407924 0.0413627 -0.00471258 
391 2 73.8746 24.6936 6.79865 0.0430634 -0.0231682 -0.0941249 
386 2 79.0398 19.4709 10.12 0.065305 0.0722461 0.00840148 
365 1 78.0712 24.3139 10.6268 -0.00690896 0.00577138 0.015737 
374 1 78.8748 20.3531 9.96573 -0.0092408 -0.0175086 0.0351142 
395 2 72.9307 25.8365 8.8852 -0.0519492 -0.000387218 0.0509463 
380 1 73.8115 25.4818 9.41351 0.0298355 0.00509148 -0.00477744 
383 1 74.5884 26.4541 10.0783 0.00562362 -0.0279708 0.0140527 
375 1 76.7174 21.4101 6.61247 -0.000852317 -0.00739227 0.0210168 
361 1 77.7576 22.4084 9.32142 -0.00695658 0.0106787 -0.0179352 
368 1 76.4406 22.8244 7.32911 0.00538127 -0.00730587 0.030328 
362 1 76.9014 23.288 8.68304 -0.0334018 -0.0131653 -0.00100052 
376 1 75.5682 23.7349 6.46202 -0.0179365 0.00842724 0.018775 
282 2 82.706 26.3976 6.9761 0.0397223 0.01346 -0.0458877 
135 2 81.8936 26.0532 7.17563 -0.00765514 0.0393297 0.0600149 
363 1 78.4386 23.082 10.4223 0.00563394 -0.000311938 -0.00884462 
389 2 79.4653 20.2403 11.9814 -0.0272551 -0.0430029 0.0903819 
373 1 77.5724 20.8294 7.56766 0.014514 -0.000476092 0.00251127 
369 1 79.0817 22.4964 11.4195 0.0169793 0.000166447 -0.00193937 
377 1 79.2819 21.0075 11.0427 -0.0138167 -0.0199392 0.0227261 
322 2 68.9767 20.7907 11.4576 -0.00264628 -0.0334422 -0.0216232 
371 1 78.6737 25.3092 11.5503 0.0234269 0.0244121 0.00423407 
323 2 74.8972 18.4518 12.0249 -0.0194587 0.0775886 -0.0497133 
384 1 76.3782 26.4769 11.8194 0.0129971 0.00816049 -0.020469 
304 1 68.1328 18.042 15.0075 -0.0185311 -0.0263905 0.0121176 
307 1 68.8224 17.108 14.0661 0.014995 -0.0153483 0.00246967 
319 2 68.5803 16.9771 13.1006 0.0169445 -0.0207782 -0.0200985 
311 1 70.3706 14.1114 14.9054 -0.0212255 -0.0166005 -0.00405251 
298 1 70.2304 16.3718 14.2889 0.00957192 0.0371765 -0.0244957 
308 1 70.1438 15.0059 13.7117 0.0189919 0.014786 0.0253824 
320 2 70.752 15.0667 12.8324 -0.0848619 0.0731045 -0.00806469 
292 1 71.2622 17.4409 14.5992 -0.0122526 -0.00481958 0.0187948 
296 1 69.0382 18.2748 16.1701 -0.00613576 -0.000889086 0.00269549 
315 2 67.4974 19.1993 17.7385 0.00448116 -0.0113286 -0.0890978 
294 1 72.4031 17.9003 13.8017 -0.0112873 0.0121024 0.00152696 
312 1 71.2897 13.0707 14.7202 -0.0081512 0.00302097 -0.00851267 
293 1 73.595 17.9905 13.239 -0.0138137 0.0266897 0.0269945 
324 2 71.539 12.9139 13.6985 -0.0121672 -0.0104869 0.0172053 
300 1 74.7401 17.9594 12.9755 -0.00645032 0.0325518 0.0236024 
378 1 79.9347 23.2025 12.2138 -0.011947 -0.00242485 -0.0108845 
316 2 67.1426 17.8747 15.5421 -0.0497824 0.0247123 -0.0267527 
290 1 70.4145 18.2497 15.5554 -0.00989216 -0.0104533 -0.0152138 
303 1 68.4352 19.2392 17.1429 0.000987656 0.0104228 0.0151089 
306 1 68.9859 21.1006 12.4671 -0.0103562 0.00634729 0.0273954 
291 1 70.328 20.4325 14.7784 -0.00459594 0.00354712 -0.0194518 
310 1 69.4495 20.7176 13.6593 -0.0126002 0.00651663 -0.0126709 
289 1 70.8675 19.65 15.7686 0.000682532 0.00960182 0.0069875 
302 1 71.9806 20.6616 17.7231 0.0144796 -0.00503135 -0.00674501 
295 1 70.9172 20.034 17.3527 0.005855 -0.000179359 -0.00523846 
318 2 74.9704 21.0399 17.9512 -0.0518149 0.0730051 0.019413 
297 1 74.2285 21.8151 17.4497 0.000969628 0.00586227 -0.00660636 