ITEM: TIMESTEP
780000
ITEM: NUMBER OF ATOMS
576
ITEM: BOX BOUNDS pp pp pp
-1.2000000000000000e+01 8.4000000000000000e+01
-1.2000000000000000e+01 3.6000000000000000e+01
-1.2000000000000000e+01 3.6000000000000000e+01
ITEM: ATOMS id type x y z vx vy vz 
286 2 -6.01984 -11.7022 -5.92002 -0.000404371 0.0376139 0.0263351 
408 1 1.44373 -5.27286 -8.34783 0.000770619 0.0219959 -0.00361073 
430 2 2.36147 -6.49554 -9.50195 -0.00235654 0.135526 -0.0958152 
136 2 0.24013 -6.69693 -9.65776 0.0694305 -0.00335119 0.010812 
420 1 1.25385 -6.09996 -9.4245 0.0045581 -0.00116681 0.000239227 
431 2 -8.80534 -2.63003 -10.5855 0.100364 0.0477621 0.0397035 
419 1 -7.99771 -2.22009 -10.0322 0.00967854 -0.0025178 -0.0179329 
400 1 -5.1239 -1.11356 -7.15835 0.0199347 -0.00498121 0.0202257 
416 1 -7.6792 -3.00653 -9.12346 0.0233464 7.69206e-05 -0.0223714 
428 2 -7.96069 -1.26734 -9.6487 -0.0374513 -0.0463554 -0.0568965 
415 1 -6.21809 -1.94254 -6.80443 -0.000799057 0.0171059 0.0133677 
406 1 -7.0079 -3.10668 -7.7905 0.00197139 0.00435725 -0.000305447 
250 2 -5.11737 -0.522906 -9.66236 0.0557356 -0.0205772 -0.0560252 
412 1 -6.61704 -4.12492 -6.98442 0.017572 0.0193773 -0.0016875 
424 2 -6.75315 -5.30719 -7.35079 -0.0033348 -0.021187 0.0305069 
402 1 -4.82951 -1.19974 -8.56439 -0.0120934 -0.00120236 -0.0177905 
407 1 -2.0262 -2.75562 -10.5026 -0.0146952 0.00480616 -0.0242221 
429 2 -1.18893 -2.70875 -11.4497 0.0262531 0.0139905 0.0198687 
399 1 -3.49848 -2.81324 -10.186 0.00434241 0.00410055 -0.0268359 
401 1 -4.1363 -2.09891 -9.33846 -0.0320244 -0.000458525 0.0235367 
417 1 -0.972254 -2.90329 -9.71718 0.00837719 0.0146944 0.0015945 
405 1 -0.544232 -3.35496 -8.5987 -0.00412456 0.00479511 0.00337747 
418 1 1.31061 -4.40084 -7.30269 0.0198734 -0.00169981 0.00101079 
432 2 1.06964 -2.8928 -6.66809 0.112014 -0.0353608 -0.0774237 
414 1 0.34726 -3.44754 -7.51403 0.01374 -0.0164886 0.0196652 
426 2 -4.76603 -0.267795 -6.46306 -0.0153309 -0.039721 -0.065948 
197 1 -7.20248 -11.3059 -0.011405 0.00720623 -0.00991872 0.0182487 
209 2 -7.53994 -10.5792 -0.674144 0.017005 0.0744353 0.0351404 
379 1 -7.69558 -7.94099 1.28938 -0.00306124 -0.00739038 -0.00495026 
368 1 -9.84699 -9.3419 0.699808 0.0251287 0.00824616 0.016167 
391 2 -6.84455 -8.54268 1.03399 0.0498969 0.0505412 -0.0848497 
388 2 -9.683 -9.01977 -1.14046 0.0501359 -0.102374 0.0268432 
375 1 -10.3974 -9.72106 -0.544389 0.00930287 -0.015313 0.00503968 
373 1 -11.374 -10.5127 -0.92967 -0.000718379 0.0118519 0.0261767 
169 2 -10.6293 -4.48715 8.25844 0.0560522 -0.0307688 -0.0308399 
133 2 -5.3909 -11.4475 -2.2263 0.0562281 -0.0451198 0.057653 
198 1 -5.02482 -11.3219 -1.07763 0.00362819 -0.0166269 0.00201902 
213 2 -3.22645 -10.5276 -1.27891 -0.0595595 -0.119051 0.0702754 
201 1 -3.7184 -11.0727 -0.475414 0.00497297 0.0204714 0.0100103 
398 1 -6.26522 -2.34604 -5.30403 -0.00229796 -0.0233505 0.0205432 
397 1 -6.25737 -1.96186 -3.96342 0.00823568 -0.00821756 0.00901049 
17 1 -7.29641 -2.66509 -2.88022 0.00497107 0.0039199 -0.0312925 
29 2 -8.2975 -3.88872 -4.69946 0.0309232 -0.0280422 0.0842311 
14 1 -8.10617 -3.53528 -3.53567 0.0187429 -0.00786909 -0.000801982 
404 1 -5.80371 -3.64727 -5.61529 0.0260696 0.00701052 -0.0131515 
403 1 -4.89076 -1.76972 -3.36653 0.00844033 0.000704665 -0.0354866 
409 1 -3.98742 -2.61521 -4.14996 0.000218178 0.0288187 -0.0120628 
410 1 -4.74871 -0.405414 -3.18546 -0.00582356 -0.0161518 -0.0165772 
411 1 -4.44948 -3.76024 -4.84994 -0.0361991 -0.0156088 0.00838984 
423 2 -3.17448 -2.12793 -4.56562 -0.0323825 0.0322181 0.0372494 
427 2 -3.67541 -4.55827 -5.17487 0.0871831 0.0229795 -0.0477352 
425 2 -3.98454 1.43445 -2.12446 0.105868 0.0361599 -0.0644105 
413 1 -4.47075 0.427032 -2.24909 0.000591257 -0.0227657 -0.0196038 
422 2 -4.49713 -0.228474 -1.31664 0.0219849 -0.0977398 0.00675199 
288 2 -3.72601 -12.2137 -6.53881 0.0580099 -0.151227 -0.0060709 
170 2 -6.72094 -4.87155 7.75648 0.0463778 -0.0278172 0.00139323 
157 1 -8.99126 -5.80002 9.34952 -0.0294539 -0.0156756 -0.000992123 
376 1 -9.07235 -8.30242 1.43001 -0.00312455 -0.000461626 0.0365484 
189 1 -5.85327 -11.8095 -0.0294836 -0.0191229 -0.0177849 0.00434987 
362 1 -10.6549 -10.171 1.70188 0.0164077 -0.0199731 -0.0120726 
364 1 -10.8875 -9.34103 2.78073 -0.00212531 0.000996729 0.00722038 
370 1 -9.92053 -8.29462 2.72519 -0.00781984 0.000866473 0.000468219 
367 1 -11.913 -11.4224 0.0651101 0.0125146 0.001063 -0.00271738 
384 1 -11.7604 -9.13222 6.14831 -0.0213455 -0.0193716 0.0048594 
372 1 -11.5672 -8.48943 4.97753 0.0036562 0.0290952 0.0139629 
383 1 -10.7205 -7.34522 5.12543 0.0108784 -0.00182187 0.00586935 
395 2 -10.1351 -6.92531 6.02854 0.0138975 -0.0453521 -0.00774959 
380 1 -10.0626 -7.25513 3.87341 -0.0272817 -0.0109322 0.0120522 
392 2 -9.52076 -6.16591 4.0267 -0.0383915 0.126188 -0.0395608 
191 1 -3.18538 -11.9112 0.56217 0.0151365 -0.030028 0.0296387 
171 2 -9.00593 -5.28572 10.2078 -0.0541581 -0.0174835 0.0168663 
202 1 -2.00707 -11.2389 1.16843 0.0192578 0.0143592 -0.0117641 
204 1 -2.0554 -11.9933 2.33485 0.0134052 -0.0459684 -0.0285587 
214 2 -2.05029 -10.1449 1.47188 0.0718492 0.0397352 0.0183993 
283 2 -3.35121 -1.2963 9.14037 0.07695 0.0635497 0.0300992 
278 2 -2.81446 -1.32086 9.63389 -0.0347517 -0.0269674 0.0520164 
361 1 -11.7446 -11.0054 1.39868 -0.0111496 0.0182293 -0.000863089 
156 1 -9.48708 -11.7644 8.42363 -0.0156632 0.00816113 0.00897504 
173 2 -4.59868 -6.96108 7.57231 -0.00151268 0.0171821 -0.00827048 
153 1 -6.00987 -8.30968 8.24162 -0.0131946 0.00529469 -0.00584519 
396 2 -11.7629 -9.2503 7.25757 -0.0910393 0.00579765 -0.0988335 
159 1 -10.1104 -5.43878 8.48059 -0.0308015 -0.00922561 -0.0252592 
158 1 -6.95306 -6.0313 7.72762 -0.00135048 -0.0117749 0.00841166 
154 1 -11.7353 -10.0204 9.14709 0.00203903 -0.0124104 0.012499 
148 1 -10.4055 -9.19763 8.89136 0.00606184 -0.00817068 0.0116175 
152 1 -10.9451 -6.63262 8.16598 -0.00562205 0.00272577 0.0153507 
146 1 -10.1627 -7.90729 8.44134 0.0188907 -0.00601056 -0.00294601 
150 1 -9.26798 -10.3124 8.62336 -0.0122852 0.0254563 -0.00497841 
145 1 -8.66502 -7.83532 8.30409 -0.00803846 0.031119 -0.0217018 
149 1 -7.94848 -9.96793 9.0136 -0.0248906 0.000504208 -0.0212345 
147 1 -7.51683 -8.70712 8.45939 -0.000510417 -0.01304 0.0141784 
151 1 -8.00735 -6.60027 8.59507 0.00507492 0.000415097 0.00592223 
155 1 -6.94715 -11.0688 9.50111 -0.00724541 6.02681e-05 0.0106948 
174 2 -5.83754 -9.93918 10.8426 -0.132665 -0.0111841 0.00183922 
162 1 -5.1893 -9.47694 8.96492 0.000540283 -0.0176424 0.000199288 
165 1 -5.65531 -10.4539 9.83274 0.0188449 -0.0176575 0.0287767 
161 1 -5.70901 -6.95289 7.7106 0.00177568 0.00189499 -0.00908062 
175 2 -11.9612 -10.7494 9.77785 -0.0890861 -0.0318049 0.044824 
280 2 -3.88092 28.7835 -10.4629 0.0539516 0.0692839 -0.0333104 
267 1 -6.55358 29.7621 -11.4763 0.00810301 -0.000833584 -0.00654349 
268 1 -4.20372 29.7829 -10.2893 0.00660211 0.000819197 0.000960085 
99 2 6.9545 26.8472 -11.4314 0.0547712 -0.012478 -0.0650112 
85 1 7.84034 27.4996 -11.3157 0.0328189 -0.0103002 -0.00276898 
87 1 7.369 27.7724 -9.95273 -0.00912908 -0.007869 -0.00170409 
80 1 7.73964 28.222 -8.70072 -0.0218266 0.0117187 -0.0158153 
100 2 8.76015 27.5146 -8.42633 -0.0519799 -0.0920266 -0.0466356 
257 1 -6.74198 33.8766 -8.19265 0.0103436 0.0108308 -0.0114916 
263 1 -7.11625 35.14 -7.54054 0.00540582 0.00937374 0.0136864 
273 1 -8.46224 35.4111 -6.98605 -0.00400958 -0.0211026 0.00414655 
285 2 -10.2089 35.2409 -7.46082 -0.0689343 0.0330891 0.0785484 
270 1 -9.3956 34.6275 -7.93919 -0.00927164 0.00097905 -0.0102992 
255 1 -7.66072 33.1472 -8.73966 0.0156632 0.00199037 -0.00358639 
261 1 -9.02486 33.4967 -8.79618 0.0126511 -0.00474336 -0.0105432 
269 1 -10.0936 32.603 -9.35923 -0.0192701 0.0206808 0.00859758 
266 1 -9.53916 31.547 -10.1858 0.00712287 0.00730228 0.0146654 
253 1 -7.11141 31.939 -9.61434 -0.0121805 0.00496986 0.0127051 
259 1 -8.35126 31.2615 -10.2602 0.00367296 0.00315603 0.00786584 
265 1 -7.89673 30.0408 -11.1387 -0.0123197 -0.0424275 -0.00146613 
281 2 -10.6164 32.0755 -8.61006 0.0392619 0.0751634 -0.0182571 
215 2 -0.900403 34.3626 3.93356 0.0482274 0.0768351 0.0729224 
258 1 -5.27331 33.4414 -8.10784 -0.0186899 -0.0125261 -0.0234216 
256 1 -4.68431 32.3964 -8.88123 0.0117012 0.0119514 0.00322539 
254 1 -5.79992 31.5201 -9.60313 -0.0133031 -0.00763978 0.00883011 
260 1 -5.58207 30.428 -10.546 -0.0140887 -0.00355214 -0.00993561 
271 1 -3.6512 30.312 -9.30548 -0.0104863 -0.00144585 -0.00808412 
262 1 -3.53646 31.4004 -8.48506 -0.0228723 -0.00769087 -0.0136467 
264 1 -4.17512 33.7085 -7.13857 0.0130852 -0.0100108 0.000143299 
272 1 -2.81768 31.4864 -7.07581 0.0313732 -0.00631276 -0.0049748 
527 1 -5.05922 14.1067 -2.1993 0.0314113 0.00933339 -0.00941741 
538 2 -1.41399 16.4762 -3.33507 0.0549877 -0.00019382 -0.0369879 
526 1 -1.57857 15.4387 -3.42393 0.0288856 -0.00565654 -0.018818 
528 1 -2.79885 14.5402 -3.34313 0.00891356 0.01343 0.0135094 
534 2 0.967359 16.4748 -2.07851 0.0189304 -0.117729 0.00764146 
522 1 0.0722817 15.9711 -0.199161 -0.00826401 0.0167728 -0.0394017 
525 1 0.209582 15.6003 -1.57584 0.00412666 -0.0111576 0.0170521 
515 1 -0.855314 14.8654 -2.23067 0.0100155 0.00532915 -0.00623236 
507 1 -1.04037 14.7858 0.224186 0.00581427 0.00810141 -0.00154626 
509 1 -1.40368 14.1209 -1.05996 -0.00563204 -0.01453 0.000971334 
510 1 -2.885 14.0762 -0.898628 -0.0126977 0.0199219 0.0239174 
516 1 -3.54452 13.9508 -2.22078 0.0128635 0.00339959 0.0132835 
508 1 -3.66574 13.8198 0.181851 0.00268486 0.0229779 -0.000370283 
514 1 -5.12153 13.1035 -0.0744825 -0.00751338 -0.00932031 0.00431578 
33 2 -4.65114 14.6793 -4.78252 -0.0191452 -0.0227421 0.0359076 
287 2 -5.0367 14.5458 -5.00834 -0.0146917 -0.15683 -0.0426138 
242 2 4.87421 29.1878 -4.64167 0.0317538 0.0657022 0.0387867 
230 1 5.18401 29.8428 -3.88841 -0.0316477 -0.00719999 0.0255813 
241 2 1.87708 30.8195 -3.89667 0.0339817 -0.00992845 0.0453041 
233 1 6.54821 29.4503 -3.56314 0.0141119 0.014602 -0.0146241 
245 2 7.27461 28.7365 -3.86233 -0.00158133 0.0608203 -0.00649535 
246 2 9.32607 29.9433 -3.98834 -0.0537093 -0.0122712 -0.0102326 
276 1 -4.49653 35.1466 -6.95855 0.0268631 0.0136613 -0.00218063 
275 1 -3.01498 32.8406 -6.57717 0.00335708 0.0256989 -0.0311858 
524 1 -5.78908 13.6785 -1.25818 -0.00301816 0.0225652 0.0130034 
231 1 2.31869 31.2092 -1.59107 0.0156635 0.0161976 0.00863085 
229 1 2.69241 30.8983 -3.02668 -0.039625 0.0250443 0.00772127 
223 1 4.10013 30.6438 -3.13359 -0.0203336 -0.000544104 -0.021266 
243 2 1.45821 31.0379 -1.21194 -0.05853 -0.104645 -0.0155848 
244 2 1.35802 34.1858 -0.160329 0.0177678 0.0573192 -0.00687851 
224 1 2.92656 32.6879 -1.29803 0.00925094 0.00970516 0.0159591 
232 1 2.53916 33.8609 -0.367641 0.00103503 -0.00601727 0.0116042 
218 1 4.21087 32.4615 -1.25034 -0.00555597 -0.0049408 -0.00072113 
220 1 5.07545 33.5116 -0.479946 0.0172426 -0.0189458 -0.0135049 
217 1 4.85092 31.425 -2.11169 -0.0123396 -0.0102429 0.00937762 
225 1 7.31072 30.6999 -3.12429 0.000590021 -0.00830109 0.030153 
234 1 8.7711 30.5673 -3.35598 0.00239392 0.0061502 -0.0059443 
219 1 6.39734 31.6503 -2.40771 -0.0129041 -0.0030814 0.0106439 
221 1 7.09836 32.483 -1.50577 -0.00224781 0.00323236 0.0153854 
227 1 8.4579 32.7114 -1.93734 -0.0149782 0.0216931 -0.00494145 
237 1 9.3839 31.688 -2.68432 -0.0114131 -0.00222955 0.00810625 
222 1 6.39674 33.3424 -0.376969 0.0180002 0.0126448 -0.00537132 
249 2 10.4427 31.3488 -3.06932 -0.0350248 0.040344 -0.0358247 
238 1 9.29634 33.4045 -0.891591 -0.0111735 0.0167319 0.026978 
357 2 10.4025 33.8905 -1.08118 0.059982 -0.0128774 0.000821316 
532 2 -6.43411 13.8633 3.26764 -0.0147333 0.0336632 -0.0484778 
523 1 -6.0436 13.0533 1.21583 0.0296981 0.0433856 -0.00883027 
520 1 -5.76177 13.8255 2.30719 -0.00215602 0.00407286 0.0104807 
512 1 -4.43602 14.3576 2.2593 0.00281677 -0.00482628 0.00811189 
505 1 -1.82064 14.92 1.48397 0.00803364 0.0175657 0.0118623 
506 1 -3.09359 14.1102 1.43202 0.0141674 -0.00979865 0.00544616 
518 1 -0.048555 16.1859 3.25011 -0.0186717 -0.019769 0.00748133 
511 1 -1.36327 15.5822 2.6501 -0.0118752 0.00337016 0.0183083 
517 1 -2.47765 15.3079 3.54907 -0.00670299 0.00742207 -0.0154685 
529 2 -2.42848 15.2368 4.53818 -0.0295309 0.0139679 0.0179298 
519 1 -3.93226 15.145 3.3038 0.0275094 0.00722349 0.0346372 
531 2 -4.81791 14.7813 4.21599 0.0979359 0.0257323 -0.0242436 
513 1 0.498332 16.9835 0.615661 0.00835895 -0.0114527 0.0126672 
533 2 0.849072 18.1142 0.526847 -0.0430332 -0.0644704 0.0339422 
521 1 0.59032 16.8657 2.14387 -0.00144538 -0.00260455 0.00181426 
530 2 0.993107 17.6876 2.82944 -0.0108244 -0.0132773 0.003013 
216 2 8.27033 16.5633 1.73186 0.0473602 0.0132816 0.011795 
358 2 6.54723 18.1198 3.34212 0.0737516 -0.0248184 0.0562777 
345 1 8.36072 16.0584 2.82434 0.0138023 -0.0128082 -0.00301555 
346 1 6.91482 17.6616 4.18448 0.0104464 0.00927156 0.029704 
341 1 10.43 13.1287 4.2957 0.0235385 0.00659005 -0.0311268 
335 1 7.98886 16.6346 4.0939 -0.00931438 -0.00403242 0.0248955 
354 2 8.89512 14.3094 1.69547 -0.0145375 0.100275 -0.0486521 
338 1 11.1693 13.1493 5.47067 -0.0100044 0.00101106 -0.00794837 
333 1 9.45206 14.2639 3.97249 0.0295216 0.00842281 -0.00834197 
327 1 9.1994 15.0186 5.15854 -0.000985056 -0.0172535 0.00139472 
329 1 8.61959 16.2895 5.31738 0.0185693 -0.0059782 -0.000664602 
342 1 8.72237 14.6821 2.8408 0.0138552 0.0200783 -0.0102589 
360 2 5.19315 18.43 5.36398 0.0672465 -0.0306526 -0.0438522 
348 1 6.05264 17.9193 5.24435 0.00806986 0.000615754 -0.0272765 
193 1 -8.99461 34.7054 2.32313 -0.00544965 0.00901804 0.0103341 
205 2 -9.87205 34.6094 1.6461 0.0199047 -0.0020373 0.0486548 
187 1 -7.84536 34.8336 1.4663 0.0196307 -0.0418722 0.0110568 
207 2 -9.0902 33.3198 4.3923 0.0303218 0.0199593 -0.0728887 
195 1 -8.58447 34.0801 3.51741 -0.00414112 -0.0305394 -0.0180689 
188 1 -7.16003 33.7913 3.575 0.00929246 -0.00164255 -0.0106406 
208 2 -7.03145 31.7985 4.89731 0.0515631 -0.056359 0.041849 
196 1 -6.59079 32.6965 4.35477 0.0062943 0.0451737 0.014541 
182 1 -5.91613 34.4306 3.05757 -0.011355 -0.0174107 -0.0151246 
181 1 -6.34278 34.7539 1.6792 -0.00854803 0.00700683 0.0252519 
199 1 -5.3179 32.785 5.10725 -0.0280858 0.0282011 0.0244623 
211 2 -5.25015 31.7905 5.69758 -0.00957121 -0.117976 -0.091872 
190 1 -4.26085 33.6501 4.69839 0.0159365 0.0141765 -0.00632243 
200 1 -2.83051 33.5271 5.00735 0.00726747 -0.013263 -0.0246423 
184 1 -4.74799 34.4142 3.6815 -0.0193186 0.0270522 0.0224142 
212 2 -2.65176 33.2481 6.11937 0.0928783 0.0233382 0.0387642 
203 1 -2.06428 34.0885 3.96912 0.00375121 0.0211227 -0.000645366 
353 2 10.849 12.6521 3.38079 -0.0229032 -0.00997001 -0.0116503 
186 1 -3.78387 34.8544 2.68446 -0.00645064 -0.0196713 0.00861359 
192 1 -2.69847 35.2809 3.37555 0.00498685 -0.0325691 -0.0166127 
536 2 -5.4503 14.2384 -3.16232 -0.0756111 -0.0329124 -0.0604582 
235 1 3.32149 34.5535 0.72781 -0.0162437 0.0238039 0.00147382 
226 1 4.6408 34.321 0.649019 0.0163388 0.0176653 0.00518098 
247 2 2.66888 34.9233 1.56429 0.00602081 -0.0154011 0.0277971 
251 2 5.76204 34.9748 2.94328 0.0254952 -0.100013 0.0231028 
239 1 5.69499 34.4997 1.92402 0.00527966 0.0020659 0.00277712 
236 1 6.90266 34.4679 1.44895 0.00716325 0.00866775 -0.0138373 
228 1 7.57188 34.1343 0.242563 0.00753454 0.0144103 0.00665717 
240 1 9.06756 34.0347 0.264759 0.000398212 0.00533701 -0.0214808 
252 2 9.80826 34.6926 0.283665 -0.0511877 0.00850045 -0.0400714 
337 1 11.8647 13.7198 7.8025 -0.013063 0.0181668 0.0196 
339 1 11.7101 15.0552 8.50743 0.0153876 -0.0114853 -0.0166225 
332 1 10.3162 15.6595 8.606 -0.0251639 0.00215176 0.00883671 
328 1 8.28783 16.3899 7.7916 0.00475912 -0.00867298 -0.0126457 
325 1 9.8164 14.6533 6.43764 0.0104478 -0.00183577 -0.000946485 
331 1 10.9407 13.9085 6.70968 0.00632531 0.00932339 -0.0358812 
326 1 9.34995 15.3627 7.64379 -0.0191252 -0.0226109 -0.00315945 
330 1 8.03762 16.8884 6.54048 -0.0110669 -0.0104458 -0.0201601 
340 1 10.1159 16.136 10.0335 -0.00879757 0.00480739 0.0232862 
356 2 7.3691 19.4398 9.44301 -0.0694781 0.0170438 0.0518263 
359 2 5.97781 19.527 7.53832 -0.007624 -0.0134817 0.0582083 
347 1 6.74102 18.729 7.39737 -0.00176889 0.00883238 -0.0041461 
343 1 9.07564 17.0899 9.66861 0.000240696 -0.029565 -0.00217084 
334 1 8.09723 17.3852 8.81279 -0.0272631 0.0141384 0.00480599 
344 1 7.38362 18.682 8.60415 -0.0306332 0.00306209 0.0165654 
336 1 7.07571 17.8549 6.43318 -0.00207914 0.00522639 0.0027379 
168 1 -8.48841 35.3468 8.67214 0.0221366 -0.0161468 0.0129483 
178 2 -6.62326 34.6676 8.58709 -0.0283334 0.00398375 -0.0340914 
166 1 -7.17273 35.5642 9.01638 -0.0144768 0.0454469 -0.00370428 
185 1 -3.91721 35.1541 1.30612 -0.00165738 -0.019713 0.0136587 
183 1 -5.25583 35.6486 1.21565 0.0160369 -0.000474209 -0.0338101 
194 1 -7.99655 35.4759 0.080364 0.00573875 -0.00533707 0.00226066 
277 2 -8.99017 29.306 -11.348 -0.0445162 0.0431375 -0.0100468 
279 2 -6.04422 29.0791 -11.855 -0.0983597 0.0923543 0.00151963 
206 2 -8.9174 35.6393 -0.561721 0.0236597 0.033989 0.00138123 
274 1 -5.89667 35.5105 -6.71978 -0.00768389 -0.00811487 0.00874766 
180 2 -10.7458 35.6625 8.30907 0.111015 0.0524701 -0.0349494 
535 2 -7.12816 12.8962 1.17921 0.102856 0.0345821 -0.0484387 
177 2 -7.27681 15.6198 26.1379 -0.0803622 0.0685401 -0.0137245 
421 2 21.983 -11.851 0.637698 0.0569415 0.0393845 -0.0713214 
563 1 16.2296 -9.13551 -2.71694 -0.00244002 0.00429121 0.00658989 
572 2 15.7757 -8.73745 -1.75859 0.0193057 0.0526405 0.0401039 
552 1 16.9775 -10.2405 -2.94101 0.00261905 0.0154229 -0.00174984 
560 1 17.7237 -11.2971 -2.78849 0.0192966 0.017034 0.0211792 
351 2 12.3443 15.1226 9.39941 0.0262964 -0.0068817 -0.0218089 
86 1 34.9306 18.6542 -0.304421 -0.0160365 -0.00572604 0.0217282 
567 2 15.5845 32.5777 -4.64407 0.0132831 -0.00982706 -0.0809553 
548 1 15.9989 32.7928 -3.69661 -0.00468499 -0.00301796 0.0114278 
553 1 15.301 31.9873 -2.5924 0.0251792 -0.013422 -0.00386381 
565 2 14.5353 31.2126 -2.71856 -0.0300155 -0.0135254 -0.0562083 
555 1 16.9569 33.9324 -3.18786 -0.000668751 0.0269047 0.0193658 
547 1 15.679 32.3428 -1.24726 -0.0159793 0.00291188 0.00331354 
541 1 16.8483 33.1781 -0.679694 0.0044457 0.00636034 -0.0055016 
542 1 17.2534 34.1449 -1.7176 -0.0304241 -0.0228752 0.024682 
544 1 18.4551 34.9095 -1.32454 -0.0420874 -0.00238609 -0.0436788 
564 1 20.2391 35.3681 0.0802627 -0.00755028 -0.0125105 0.00133647 
550 1 18.595 35.8225 -2.61162 0.00589576 0.00552471 0.000475674 
559 1 18.7166 35.1474 -3.90418 0.00640697 -0.007424 0.0148363 
556 1 17.9962 33.9381 -4.16587 -0.00770383 -0.014651 -0.00674985 
568 2 17.8566 33.2305 -5.04744 -0.0539805 0.0815617 -0.0558837 
546 1 18.8391 34.8904 0.0583512 -0.0135109 0.00506039 -0.00746255 
101 2 34.3635 17.2722 -1.67135 -0.0444569 -0.0201985 0.0691532 
89 1 35.1488 17.4423 -0.98086 0.000563577 0.0193374 -0.0340976 
98 2 34.2002 19.5054 -0.793472 -0.0259194 -0.0582968 -0.0155238 
566 2 18.7932 28.8473 1.82109 0.0109702 0.0661993 0.0247651 
569 2 15.54 31.9865 -0.167912 0.0286521 0.022783 -0.000867319 
557 1 18.2107 29.7547 1.42149 0.00205132 0.00502439 -0.0146066 
549 1 16.867 31.8821 1.67642 0.0164923 -0.0116795 -0.0364233 
554 1 17.5387 30.6508 1.40991 0.0249285 0.00809431 0.0186169 
558 1 17.23 32.0198 3.00471 0.0140109 0.00900228 -0.00191386 
570 2 17.2021 31.1324 3.71372 -0.00688119 0.00987717 -0.0901836 
561 1 17.8564 33.2234 3.54182 0.00995605 -0.0116572 -0.00938027 
573 2 18.4267 33.3897 4.41376 0.0111862 -0.0706056 -0.0927374 
551 1 18.5863 33.8514 2.61457 -0.0122018 -0.0310311 0.0150218 
562 1 20.9557 35.7147 1.06003 0.0125115 -0.00767965 -0.0115944 
385 2 21.0865 35.7518 2.16104 -0.0790162 0.0636713 -0.047256 
543 1 17.4735 32.9231 0.612625 0.00386234 0.00273403 0.0105154 
545 1 18.3507 33.8392 1.02522 -0.0163333 -0.00346022 -0.00676355 
349 2 12.2282 12.782 8.02793 0.0344097 -0.0472763 0.0314744 
350 2 11.897 12.4202 5.37271 -0.0740034 -0.10372 0.00890409 
210 2 34.3977 35.2957 -7.12592 0.0368079 -0.016504 -0.0442715 
571 2 19.6351 35.2091 -4.48744 0.148877 -0.0580232 0.00630079 
284 2 34.3184 34.4151 -7.70337 0.0214894 -0.11725 0.0167175 
282 2 24.5991 33.3585 -11.5405 0.10196 0.051865 -0.0656477 
576 2 20.5332 35.3313 -0.892786 -0.0909132 -0.0424902 0.071189 
394 2 22.7328 31.1258 34.0482 -0.0170476 0.00680906 0.0901371 
71 2 14.9745 13.5384 22.3073 0.0594624 0.0597399 -0.0281053 
504 2 15.401 13.6858 22.8104 -0.0399414 0.0586839 0.00205456 
144 2 22.8975 30.6564 34.2929 -0.0745434 0.0730093 -0.12304 
135 2 24.0172 33.0192 36.0334 -0.000173079 -0.014853 0.110475 
540 2 45.4576 -3.93495 2.83208 0.00611054 -0.0659336 -0.00604542 
537 2 46.0979 -3.79543 3.20895 -0.0302439 0.0163157 -0.0147562 
53 1 54.7858 28.639 -7.36942 0.00231288 0.0024457 -0.00245687 
50 1 54.8313 28.243 -8.91227 0.0135924 -0.00291196 -0.000705006 
43 1 55.7707 28.5951 -9.81266 -0.0195281 -0.00673143 -0.0156283 
65 2 54.3622 27.2277 -8.85264 -0.0530079 -0.0961453 0.00861109 
37 1 56.7067 29.7767 -9.51003 -0.0130024 0.00873363 0.0145485 
49 1 56.2906 28.2019 -11.1643 0.0106477 0.00727385 0.0148794 
45 1 55.3883 30.0126 -7.39443 0.0105764 0.0181401 -0.00409345 
62 2 55.8347 30.7516 -6.6235 -0.0682912 -0.0291945 0.033351 
39 1 56.3366 30.5851 -8.31941 -0.00246219 0.00744523 0.0338811 
38 1 57.541 30.2121 -10.4476 -0.00806323 -0.0189274 0.0139162 
58 1 57.9969 31.9631 -7.07111 0.0427099 0.0090588 0.00423026 
41 1 57.2055 31.8331 -8.34198 0.0192519 -0.00780005 -0.0335513 
40 1 57.8456 31.7253 -10.7187 -0.00660503 0.0177453 -0.00438524 
42 1 57.8447 32.4678 -9.42127 -0.0119401 -0.0162087 -0.00124539 
46 1 58.7438 32.2756 -11.7963 0.00424241 -0.0122424 -0.030545 
48 1 58.7397 33.6252 -9.77109 -0.0127275 -0.0131707 0.00845459 
56 1 59.6657 34.307 -10.833 0.0195797 0.0117947 -0.011477 
81 1 36.1868 16.4798 -1.12987 -0.00552505 -0.0133234 -0.00857791 
78 1 39.3662 16.9316 -1.25184 0.000377637 0.010305 0.00493252 
77 1 38.4933 15.789 -0.762762 -0.0103168 -0.00331799 -0.0305694 
84 1 40.6408 16.4668 -2.07695 0.0248713 -0.00961458 -0.020752 
96 1 40.2441 15.3108 -2.37802 0.00454 0.0205507 -0.0181891 
94 1 39.3952 14.1469 -2.42629 -0.0122328 -0.00262713 -0.00405122 
102 2 36.672 13.219 -2.60454 0.0541402 0.0363861 0.0513771 
93 1 36.951 14.2181 -2.44261 0.000530445 -0.0145016 -0.0141768 
95 1 41.7655 17.3302 -2.54835 -0.0238116 0.0037023 -0.0193815 
83 1 38.2544 14.5881 -1.63291 -0.0118248 0.0103625 -0.0108498 
44 1 57.2081 29.1891 -11.636 0.0107748 0.0234715 -0.00805538 
106 2 39.1713 13.4318 -3.27836 -0.0242442 -0.0931568 0.161703 
75 1 37.4366 16.6448 -0.270835 0.00300939 -0.00547006 0.0236085 
61 2 55.9312 27.3314 -11.6007 -0.12398 0.0154368 0.0110874 
107 2 42.0063 16.5397 -3.30145 -0.0659721 0.0233727 -0.0353962 
92 1 42.0252 18.6699 -1.9394 -0.0169735 -0.0147917 0.0230397 
76 1 39.6743 18.2072 -0.958157 0.000774251 0.0236736 0.0250108 
82 1 40.7329 19.2401 -1.58697 0.00349045 -0.012899 0.0155151 
91 1 40.2518 20.6004 -2.25327 0.0218019 0.00729959 -0.00779965 
88 1 39.1017 20.9618 -2.06209 0.0167222 -0.0201648 0.0027764 
103 2 38.2009 20.6044 -1.62184 -0.050584 0.0111673 0.0850987 
104 2 43.0398 18.6314 -1.72271 0.00133774 0.025384 0.0234135 
79 1 36.0989 18.8503 0.486077 -0.0107162 -0.00569457 0.0170472 
73 1 37.3661 18.1027 0.23585 -0.024526 -0.0192265 -0.0218607 
74 1 38.5874 18.8752 -0.0266261 -0.0138659 0.0171325 -0.0133298 
59 1 59.5625 33.5408 -11.8769 -0.010117 0.00155956 -0.019772 
57 1 59.2644 32.7012 -6.60761 -0.0271442 0.00255952 0.000366938 
47 1 58.0562 32.8628 -5.93864 -0.0270875 -0.0263365 0.0276673 
66 2 57.431 33.6815 -5.48544 0.00903199 -0.00629515 -0.0515527 
97 2 36.4937 19.8477 0.806169 0.0107462 0.0178811 -0.0105706 
355 2 39.1378 19.3819 0.8376 -0.0949711 0.0311113 0.134433 
60 1 59.3814 34.399 -8.63975 0.0265133 0.00367078 0.0132235 
70 2 58.9833 35.1361 -8.11065 -0.00329186 -0.0300545 0.0107636 
90 1 36.0758 15.3124 -1.94622 0.00477891 -0.00903864 -0.00862092 
72 2 60.0595 35.2264 -10.4951 0.0951799 0.0272849 0.0617223 
248 2 45.6278 35.1394 25.1726 0.0662665 0.0218558 0.0438787 
574 2 54.724 16.2807 31.0925 -0.0299325 0.0554872 0.0357612 
352 2 54.4632 16.5161 31.9994 -0.0389824 0.0116889 0.00130836 
176 2 45.8938 34.4767 24.8999 0.0911277 0.0358867 -0.0201793 
63 2 59.1551 28.6774 35.6089 0.0768269 0.0328456 0.0724656 
67 2 57.7321 30.0993 33.3727 0.0626552 -0.128377 0.0408688 
55 1 58.4909 31.6173 34.7222 -0.00514869 -0.00587058 0.0216545 
52 1 57.9155 30.4388 34.3755 -0.0314665 0.00605055 0.0010159 
51 1 58.2873 29.2779 35.2983 0.00569738 -0.0157748 0.00503345 
167 1 83.2656 -10.2711 8.31892 0.0178101 -0.00761316 0.00133166 
28 2 77.7253 -6.66036 -7.75599 -0.0356249 0.0538828 0.0264158 
16 1 78.0873 -5.80744 -7.21266 -0.0110123 0.0147294 -0.00679537 
31 2 77.9374 -4.8626 -7.78678 -0.048006 0.0366376 -0.000858597 
27 2 74.6314 -1.10025 -10.4062 -0.0565467 0.0586162 -5.08336e-05 
15 1 75.4154 -2.89543 -8.87028 -0.0287826 0.0272677 0.0138955 
8 1 74.9555 -2.05376 -9.59471 0.0044153 0.00818779 -0.00906849 
1 1 74.9713 -4.19212 -5.5648 -0.0264104 -0.00650372 0.00454826 
7 1 75.1645 -4.45737 -6.88945 0.0245637 0.00520964 0.00320833 
13 1 75.2877 -4.045 -8.09253 0.0133516 0.00359875 -0.0249328 
25 2 75.5768 -4.83659 -8.89944 -0.0052956 0.0349549 -0.00166714 
393 2 81.1874 -11.6652 5.79247 0.0213934 0.0080449 -0.0156778 
172 2 81.356 -5.86191 8.57939 0.034871 -0.0603625 -0.070255 
495 2 79.8886 -11.6765 2.89398 0.0551843 -0.0596856 -0.0202956 
36 2 78.534 -4.63486 -0.00150168 -0.011314 0.0766385 0.0161374 
160 1 83.7375 -6.56163 8.40956 -0.0158027 0.0113419 0.0201045 
2 1 75.3311 -4.36025 -4.35726 0.0127919 0.00313674 0.029148 
26 2 72.4798 -3.34824 -3.46254 -0.0405411 -0.0534164 0.00571361 
9 1 73.2746 -3.37974 -2.87834 0.0271342 -0.00574155 0.00592218 
3 1 74.6032 -3.79709 -3.16464 0.0207044 0.0116657 0.0231765 
18 1 73.0665 -3.42781 -1.4848 -0.0485874 0.0298539 0.00317118 
4 1 76.6627 -4.82699 -3.85981 0.00455072 0.00670521 0.0179404 
5 1 75.428 -4.02691 -1.85904 0.00136345 -0.0124488 -0.00548647 
6 1 76.6743 -4.29044 -2.4531 0.00174222 0.00406437 0.0190508 
11 1 74.7995 -4.23536 -0.546754 0.0275832 -0.0079193 0.0022372 
21 1 73.4894 -3.59967 -0.037697 0.00738146 0.000267508 -0.022576 
22 1 76.0169 -5.05456 -0.019877 -0.019773 0.0131668 -0.00959387 
24 1 77.4627 -4.66812 -0.277363 0.0146807 -0.00244989 0.0213617 
19 1 77.7984 -5.88591 -5.85541 0.00324773 0.00101882 0.0120749 
10 1 77.8609 -5.45479 -4.44214 -0.00293516 -0.0134598 0.0179027 
35 2 79.5766 -5.68943 -1.45126 -0.0240354 -0.0832941 0.0445973 
32 2 79.8932 -6.22098 -4.04226 0.00902 -0.0274402 0.054222 
20 1 79.0089 -5.72792 -3.7112 -0.0137364 -0.0156896 -0.0148269 
12 1 77.7695 -4.98891 -1.73555 -0.0367791 0.00964766 -0.0113558 
23 1 79.0128 -5.35892 -2.39272 0.0122307 0.0179824 0.0254651 
382 1 83.1875 -9.93666 6.05718 0.0360804 0.00571676 0.0197241 
363 1 83.1478 -10.8705 2.3954 0.0229238 0.00348094 -0.0092516 
141 2 68.2004 -9.89641 -11.8219 -0.13202 0.0262555 -0.107584 
369 1 82.0955 -11.5975 2.28775 -0.0208978 -0.0203143 0.00215328 
381 1 81.3165 -11.1429 4.70749 -0.0338412 0.0254444 -0.00706042 
390 2 81.5158 -11.0955 7.28083 0.011569 -0.032581 0.0823275 
371 1 82.6136 -10.5252 4.90655 -0.00704874 0.00608869 -0.0125807 
30 2 72.6936 -3.95363 0.500553 -0.0175201 -0.0123805 -0.00185025 
34 2 76.2043 -5.47165 1.09791 0.0133525 0.0621301 0.0658253 
164 1 82.413 -10.3836 7.31665 0.0169138 -0.0105468 0.0437902 
163 1 82.5317 -6.2249 8.58077 0.0147723 0.030407 0.0173905 
365 1 83.0988 -10.0459 3.68293 -0.0239791 -0.0111782 -0.0177956 
378 1 81.0445 -11.4945 3.3168 -0.00182007 0.00269847 -0.0108756 
374 1 82.5598 -11.5731 -0.0397935 -0.0215297 -0.0140034 0.0189068 
138 2 66.1763 -11.622 -11.0438 -0.00113781 0.0681389 -0.0167765 
386 2 82.6705 -11.4231 -1.13911 0.0336496 -0.0204507 0.00189446 
387 2 84.1999 -10.3661 -1.90974 0.0704957 0.0284248 0.0213758 
366 1 83.9018 -8.93664 3.7465 -0.012512 -0.0212057 0.0038849 
466 2 76.3713 7.90014 -11.8744 0.0145963 0.119473 -0.016096 
306 1 75.378 -10.1347 15.0406 0.00822918 -0.000777809 -0.00807611 
322 2 74.6462 -9.16402 14.712 -0.0162706 -0.0701342 -0.0332509 
310 1 76.2304 -10.8393 14.7946 0.00379658 0.000836364 -0.0167852 
114 1 67.1409 -10.661 31.6262 -0.00829247 -0.00662818 0.00145554 
126 1 66.6167 -11.517 35.9463 0.00310822 0.00276389 -0.00758669 
112 1 66.163 -11.3298 30.587 0.000931557 0.00179417 -0.0302538 
575 2 83.2841 -0.96355 27.6829 -0.0520256 0.0141993 -0.0117363 
321 2 79.3158 -11.5337 16.6604 -0.0628882 0.033122 -0.0723979 
493 2 81.7816 3.45448 15.8412 0.0765543 -0.0924865 -0.0381664 
108 2 81.6578 1.01577 16.4072 0.0554531 -0.0370725 0.0737279 
483 1 82.3876 3.02437 16.5949 -0.0230724 0.0102037 -0.0213251 
498 2 80.5272 -2.06111 19.3146 0.0161558 -0.0492148 0.0250402 
494 2 81.8301 -1.40604 16.9974 -0.0712676 0.0638611 -0.0919155 
482 1 80.8873 -0.952621 17.4129 -0.0174138 0.00670949 -0.0188321 
485 1 80.0387 -1.24218 18.6701 -0.0198839 -0.00606561 0.000671216 
501 2 77.3889 -0.570185 19.675 0.0361242 0.00228837 -0.0611337 
500 2 76.9301 0.919701 20.984 -0.0148884 -0.0557982 0.0147689 
474 1 78.9265 2.20473 20.6048 0.0128853 -0.0118614 0.0217891 
491 1 78.0337 1.0939 20.8201 0.0109859 -0.016203 -0.0383431 
497 2 78.6938 3.2919 20.9851 0.0650068 -0.0889301 -0.0784123 
488 1 78.2877 0.144574 19.7805 0.0192532 0.0135546 0.00383841 
480 1 80.367 3.89813 22.9719 0.026091 -0.0205987 -0.000839083 
479 1 79.8898 2.44651 19.6798 0.00698528 0.0132395 -8.60367e-05 
477 1 79.4674 0.00494616 19.2374 0.00931434 -0.00337015 0.00679229 
471 1 80.1128 1.16139 19.1901 -0.00578055 0.00145583 0.0153984 
475 1 81.0015 0.587244 17.1426 0.012587 -0.0109643 -0.0198049 
469 1 80.7925 1.49791 17.9189 0.00367563 0.00335927 0.0169865 
481 1 81.4159 2.84086 17.6235 -0.00223487 -0.00948486 -0.0148538 
470 1 80.239 3.99537 19.6208 -0.0126498 -0.0265292 0.0109379 
476 1 81.0343 4.07872 18.5767 0.00665162 -0.0119241 -0.0147221 
473 1 80.4778 4.87515 22.2315 -0.0149295 -0.00566026 -0.00246391 
472 1 80.2618 5.05487 20.8567 0.0404577 -0.00114784 -0.0260362 
503 2 81.242 7.08076 21.3304 0.0418478 -0.0286369 0.0212143 