ITEM: TIMESTEP
810000
ITEM: NUMBER OF ATOMS
576
ITEM: BOX BOUNDS pp pp pp
-1.2000000000000000e+01 8.4000000000000000e+01
-1.2000000000000000e+01 3.6000000000000000e+01
-1.2000000000000000e+01 3.6000000000000000e+01
ITEM: ATOMS id type x y z vx vy vz 
357 2 6.94412 -6.02792 5.55737 -0.0619738 0.0203105 0.0142362 
245 2 2.73838 -0.728842 6.90527 -0.0298614 0.0322078 -0.0735991 
246 2 2.91726 -2.68807 5.15897 0.00743537 -0.0024447 0.0626486 
234 1 3.58417 -2.79356 5.91266 -0.0041258 -0.00625215 0.0240839 
237 1 4.85684 -3.52525 5.7983 -0.00327994 0.0047399 0.0138067 
249 2 4.69108 -4.61865 5.39013 0.022119 -0.0548393 -0.00512733 
328 1 11.5404 5.08712 3.69914 0.00533064 -0.0110531 -0.0042807 
334 1 11.2172 3.82755 2.94412 0.0222079 0.0113455 -0.0142439 
344 1 10.5457 3.63336 1.63781 -0.0117094 0.0039134 -0.0114046 
347 1 10.1002 4.75888 1.10937 0.00852081 0.00600461 -0.00459654 
359 2 9.55357 4.79682 -0.075823 -7.24348e-05 -0.0675011 0.061804 
356 2 10.1989 2.72154 1.03864 0.0757356 0.0182385 0.0486196 
343 1 11.1766 2.61764 3.74986 0.0508061 -0.0117494 -0.0201741 
473 1 -8.28312 -11.1405 11.5364 0.0191388 0.00826568 1.27828e-05 
358 2 9.94957 9.49836 1.03239 0.019574 0.0887958 0.00286735 
330 1 11.0749 6.2684 3.11879 0.0191702 -0.00263305 -0.0137513 
329 1 11.7968 7.31922 3.43246 -0.00139545 -0.016362 -0.0114497 
335 1 11.3446 8.58902 2.83391 0.00107113 0.01165 0.0106731 
346 1 10.2993 8.79278 1.81036 0.00188738 0.0121879 -0.00921473 
360 2 9.59878 7.44804 0.183462 -0.0502245 -0.00959677 -0.0435018 
348 1 10.1007 7.37468 1.2627 0.000833212 -0.00166857 0.00140099 
336 1 10.2013 6.0941 1.76002 0.00518429 -0.021271 -0.00403806 
497 2 -5.59778 -8.68422 12.0218 -0.0568491 0.051477 0.0889157 
241 2 3.89212 0.340168 11.9343 0.0103803 -0.0498558 0.0418082 
480 1 -8.991 -11.8585 10.5824 -0.0200465 -0.00774194 0.00603472 
251 2 9.88758 -4.96996 8.33848 0.0151913 -0.0517393 0.0248691 
252 2 7.8134 -6.79895 7.6008 -0.0435709 -0.00501426 -0.0581865 
233 1 3.4934 -0.8854 7.59621 0.00620233 0.022229 0.0104123 
225 1 4.18474 -1.93105 7.00208 -0.00707001 -0.00489531 -0.0014047 
230 1 3.29439 -0.179797 8.80687 -0.00710345 0.0284338 -0.00120247 
242 2 2.94331 0.900869 8.81349 -0.0572554 -0.0139247 0.0136014 
229 1 4.13509 -0.506905 11.2963 0.0152436 -0.000903661 -0.00744535 
223 1 4.2673 -0.586186 9.85507 0.016264 -0.0133028 0.00921851 
345 1 11.6153 9.94892 3.46942 -0.0111914 -0.0222935 0.0178676 
217 1 5.19225 -1.55083 9.35404 -0.0358799 0.00649853 0.030384 
224 1 5.84492 -1.48414 11.5867 0.00194384 -0.00981431 -0.00741676 
218 1 6.07878 -1.69903 10.2249 -0.0110894 0.00187071 -0.00996711 
219 1 5.39175 -1.86638 7.90965 -0.0096868 -0.00159255 -0.0096006 
236 1 9.1734 -4.46588 9.06311 -0.00692525 -0.008761 -0.0398297 
221 1 5.88183 -3.28615 7.83443 -0.00300265 -0.00568496 0.00464492 
222 1 6.77749 -3.70535 8.80769 0.0151595 0.000160084 -0.00110548 
239 1 9.30234 -3.91704 10.4437 0.000822459 0.00412366 0.0147218 
226 1 7.9902 -3.30814 10.9558 0.0154383 0.00102419 -0.00640494 
220 1 6.96244 -2.92837 9.97263 0.00252066 -0.0036749 0.0123492 
240 1 7.27462 -5.6722 7.70239 0.00427107 0.0191825 -0.00222059 
238 1 6.94879 -5.06107 6.52329 -0.0158888 -0.0102005 0.00028102 
228 1 7.70081 -4.79549 8.93606 -0.00906632 0.00910888 0.000959313 
227 1 5.89013 -4.12216 6.68933 0.00212433 0.0118628 0.00571617 
500 2 -4.36803 -6.62832 11.1668 -0.0345088 0.00565959 -0.0515796 
472 1 -8.53256 -9.78717 11.5698 0.00138055 0.0109162 -0.00169291 
216 2 10.8246 10.6437 3.58596 -0.130798 -0.031416 0.0226517 
165 1 -9.20697 -9.23796 16.753 0.000658244 -0.0339373 0.0118839 
155 1 -8.98309 -10.0366 15.8844 0.0135965 -0.0235966 0.0198428 
484 1 -8.64591 -9.82575 14.4683 0.00691793 -0.0260065 0.012994 
487 1 -7.82033 -11.2515 14.0824 -0.0203177 0.00179873 -0.0111727 
499 2 -7.26458 -11.3422 15.045 0.0617677 -0.0739062 0.0909223 
470 1 -8.21544 -8.66952 12.2396 0.00193911 0.0178247 -0.00306374 
476 1 -8.68032 -8.77874 13.7484 0.0262625 0.0059861 -0.0189514 
149 1 -10.3034 -11.0395 16.1751 -0.0145751 -0.0192276 0.00269162 
150 1 -10.9487 -11.6763 14.8364 -0.0312265 -0.00425432 -0.00733819 
481 1 -9.61651 -7.6579 14.2887 0.00411434 0.004315 0.00447773 
483 1 -10.7057 -7.8637 15.2726 -0.0109716 -0.0109463 -0.000860226 
478 1 -7.95687 -11.9688 12.9328 -0.0357954 -0.0111291 -0.0118457 
408 1 5.27194 -3.74293 31.5475 0.00882172 0.0322243 -0.0173063 
479 1 -7.18725 -7.67522 12.5161 0.00445621 -0.0143982 -0.0250562 
153 1 -11.1249 -9.69727 17.8434 -0.00433129 -0.0145572 -0.00998972 
493 2 -10.8728 -8.91785 15.3379 -0.0166065 0.016736 0.0150386 
471 1 -7.30465 -6.69358 13.5601 -0.0265384 -0.0331832 -0.00297983 
147 1 -11.4449 -10.3297 16.5791 -0.00487132 -0.000251042 0.0123407 
430 2 3.91334 -3.42204 33.3383 -0.0487331 0.0014397 -0.00315089 
136 2 5.67538 -3.40755 34.0212 -0.0100442 0.0587709 -0.199726 
281 2 -7.98872 -11.2839 32.6271 0.0501159 -0.0168474 -0.0174321 
474 1 -5.77219 -7.66076 12.1986 -0.0107882 -0.0117664 -0.00948782 
491 1 -5.04269 -6.42359 12.0051 -0.0136126 -0.0149387 -0.0238661 
250 2 9.32272 -5.0955 26.9305 0.0999158 0.0177297 0.043589 
485 1 -6.37556 -4.64972 14.8049 -0.0146046 -0.00394938 -0.0114625 
469 1 -8.5351 -6.47163 14.0781 0.000333743 -0.00182084 0.0159812 
477 1 -6.08107 -5.82571 14.0216 0.0149998 0.0138105 -0.0161815 
475 1 -8.69826 -5.01659 14.4983 -0.0206416 0.00704462 0.000412798 
482 1 -7.72614 -4.08444 14.9212 0.0209743 -0.0296748 -0.0234155 
108 2 -9.42953 -4.76338 13.8171 -0.0415195 -0.0307757 -0.0069074 
494 2 -7.74673 -3.09258 15.3102 0.0175051 -0.0715449 -0.00473862 
498 2 -5.98374 -3.89701 15.5028 0.0169296 -0.0308778 0.0419766 
488 1 -4.97675 -5.38246 12.9904 -0.00744399 -0.00855266 -0.0211946 
501 2 -4.09781 -4.8867 13.324 0.0772854 -0.0498545 0.037119 
232 1 6.56915 -2.10214 12.5422 0.0080115 0.0225603 0.0141473 
244 2 6.659 -1.64339 13.5605 0.0377398 0.0183146 0.0209931 
243 2 5.06886 -0.240235 13.3975 -0.0685559 0.0520245 0.0587864 
247 2 7.86272 -3.16672 13.2715 -0.0302133 0.0180323 0.0711638 
235 1 7.65475 -2.82728 12.2191 0.038386 0.0277051 0.00353305 
428 2 11.4951 -1.64646 27.0357 0.00358291 0.00836277 0.0471892 
162 1 -9.84949 -8.78001 17.7413 -0.0327773 -0.0193866 -0.0160906 
174 2 -9.46893 -8.04279 18.471 -0.0209204 -0.0149614 0.081046 
425 2 10.4917 -1.15395 19.5813 0.111916 -0.0114008 0.0284765 
426 2 10.9265 -4.52666 22.1134 0.00970694 -0.08759 -0.0374349 
429 2 9.50099 -2.28539 27.2924 -0.00383793 0.0267234 -0.0522702 
418 1 5.28814 -3.41039 30.1617 0.0148085 -0.00207638 0.0183332 
420 1 4.96568 -3.33454 33.0159 0.00563992 -0.0265379 -0.041221 
17 1 11.671 -1.48103 19.4952 0.0283186 -0.0068239 -0.00207565 
231 1 5.13762 -0.729807 12.2332 0.0126114 0.0152523 0.0176631 
400 1 11.2926 -3.96363 22.9942 0.0229461 0.00214159 -0.00902728 
432 2 4.27162 -2.85941 28.7683 0.0662739 0.126367 0.018012 
414 1 5.38433 -3.12018 28.7431 -0.0110379 0.00662297 0.0312018 
405 1 6.19646 -3.0398 27.7303 0.0141173 -0.0268411 -0.0058368 
417 1 7.41404 -2.88123 27.228 -0.000688055 -0.0083319 0.0167998 
407 1 8.4658 -2.72902 26.6666 -0.0186406 0.0165118 0.0203374 
402 1 10.5747 -3.81968 24.2519 -0.00482595 -0.0332459 0.0033261 
401 1 9.99132 -3.95611 25.382 -0.00132911 0.000128238 0.00303031 
399 1 9.4201 -4.11371 26.4703 0.0247333 -0.0101072 -0.0197113 
287 2 -0.714245 21.767 -10.4292 0.0126721 -0.00785272 0.0751407 
33 2 -1.23411 21.5341 -11.38 -0.0777568 -0.0309406 -0.0584117 
565 2 11.9692 31.068 -5.25244 0.0269405 0.001049 -0.0130154 
273 1 -4.06828 34.1528 -11.8487 0.00717273 -0.00373639 -0.0244239 
286 2 -3.39051 31.0126 -10.9794 0.0333882 0.0483886 0.111064 
285 2 -3.38137 34.3749 -11.0183 -0.0313145 0.058751 -0.0783279 
274 1 -3.41737 31.508 -11.8869 0.00118087 -0.0118621 -0.0162785 
207 2 5.22609 25.995 11.0924 -0.0045976 0.000459544 -0.026208 
80 1 4.0673 14.6939 5.84934 -0.0464617 -0.00637686 -0.0147334 
87 1 3.38237 14.8223 4.52537 -0.0073262 0.0104726 -0.010368 
100 2 3.81844 14.0209 6.50881 -0.0521484 0.0530757 -0.0697988 
202 1 -0.877363 24.6974 5.66826 -0.0102765 -0.0223582 0.0322775 
214 2 -1.84381 24.296 5.32122 0.0260075 0.0404435 0.117357 
215 2 2.90181 25.5886 3.97901 -0.00940736 0.0789559 -0.0154151 
192 1 1.47709 25.3334 5.96791 -0.0108066 -0.0171875 0.0197195 
203 1 2.7557 25.7594 5.13017 0.00971367 0.00665873 -0.0170708 
204 1 0.426848 24.4419 5.14136 0.0171529 -0.022943 0.00559811 
212 2 4.8398 26.476 4.83387 -0.0174193 0.148245 0.0586612 
538 2 8.38643 28.3521 4.9656 0.0203038 0.00192951 -0.0163514 
526 1 9.43359 28.0022 5.49359 0.0200242 -0.0125814 -0.0178946 
534 2 10.4467 31.2119 5.20983 0.00173747 0.0066813 0.0135444 
85 1 2.78814 14.5749 3.72514 0.0454275 -0.0134958 -0.0106279 
99 2 2.16626 14.5769 2.7944 0.0278811 -0.0968236 0.00637798 
213 2 -3.11908 25.1854 7.36324 0.00307903 0.022736 0.0646931 
191 1 -0.936449 25.4895 6.93109 0.016662 -0.00469549 -0.00824691 
201 1 -2.10665 25.7465 7.66127 -0.0377832 0.0269992 0.00189617 
133 2 -2.73399 26.806 9.02167 0.0546386 -0.0475162 0.0272344 
198 1 -1.8353 26.7915 8.61138 0.00127369 0.00372276 0.00370852 
197 1 -1.01633 28.232 10.6527 0.00610755 0.0119716 0.00730141 
189 1 -0.852437 27.1072 9.51017 0.0238713 -0.0215026 0.00266996 
183 1 0.330356 26.279 9.26855 0.0556863 -0.017215 0.00152819 
194 1 0.216563 28.1098 11.4491 -0.00450344 0.00647459 0.00437689 
209 2 -1.951 28.7786 11.1616 0.00500013 -0.0211998 -0.0252602 
211 2 4.78134 28.4145 7.76698 -0.151137 -0.042915 0.0412893 
200 1 3.75812 26.4306 5.63559 0.0160519 0.017788 -0.00853798 
187 1 1.42007 27.1516 11.2823 0.00902772 -0.00988179 -0.0119515 
208 2 5.94578 27.6854 9.31168 -0.0840045 0.00448835 -0.0660992 
530 2 10.5129 32.3893 11.0941 -0.0390637 -0.0199733 0.0547671 
185 1 0.226009 25.502 8.12465 0.0157777 -0.00264406 0.0165213 
181 1 1.71944 26.3266 10.0078 0.00602603 -0.00292933 -0.0213913 
196 1 4.97999 27.2622 9.14537 -0.0253748 -0.00224092 0.0162569 
199 1 4.36901 27.3768 7.95976 -0.0295809 0.00614639 0.0067261 
195 1 4.03532 26.9925 11.4519 0.0165574 0.00868114 -0.00200164 
190 1 3.4531 26.7516 7.01522 0.0196227 -0.00597449 0.0239826 
188 1 4.29032 26.3046 9.98981 -0.00324627 0.0151401 -0.0164234 
182 1 2.86296 26.073 9.36716 0.0184343 -0.000608871 -0.0137285 
184 1 2.8364 25.6781 7.91768 -0.00837416 -0.00229461 0.0208716 
186 1 1.42882 25.3347 7.41504 -0.00065436 0.00138149 -0.00747199 
518 1 11.0468 31.5701 10.4215 -0.0195464 0.0093416 -0.0018026 
466 2 11.7395 26.2095 -7.20671 0.0274275 -0.0660237 -0.00538964 
515 1 10.5126 29.0371 5.88243 0.015772 0.00478794 0.00259695 
525 1 10.6729 30.4146 5.94778 -0.0171985 -0.000523082 0.0127523 
536 2 9.4573 24.0977 10.2217 -0.0207915 -0.140205 0.0234791 
528 1 8.88369 26.7114 6.09167 -0.0103411 -0.00559023 -0.0253112 
524 1 9.57149 25.0618 9.52856 0.0257385 -0.0230738 0.0119148 
527 1 9.35469 25.3656 8.1923 0.00971043 0.0169827 0.0206931 
506 1 11.4777 28.0376 10.0512 0.0105963 0.00260974 -0.00200309 
508 1 10.4783 27.2402 9.43634 -0.000755788 0.0215429 0.0178635 
516 1 9.2523 26.7849 7.49799 0.0145892 0.0171851 0.0123681 
512 1 11.8023 27.7111 11.4897 0.000309222 0.0210792 -0.00122916 
509 1 10.8489 28.6724 7.42782 -0.0119069 0.0248739 0.0156599 
523 1 11.4503 25.4329 11.1809 0.00179921 0.0165394 -0.0251688 
514 1 10.7299 25.967 10.0871 0.0149849 0.0038163 -0.0209435 
510 1 10.1171 27.6867 8.0381 0.0153743 -0.0161405 0.00593841 
507 1 11.5046 29.5536 8.09606 0.0096158 0.0362785 -0.00506891 
505 1 11.7606 29.2991 9.70348 0.00573024 0.00800009 -0.00119728 
511 1 11.7526 30.3432 10.7503 0.0123454 0.0130014 -0.00858625 
490 1 -9.16935 35.0367 10.0103 0.00994267 0.0142452 0.00745931 
492 1 -9.07449 34.013 9.24799 0.0236556 -0.0137132 -0.0335338 
502 2 -10.2262 31.0577 10.1506 0.0810205 0.0873245 0.0536123 
489 1 -9.57177 32.8736 8.86688 -0.0122714 -0.00528004 -0.0178305 
486 1 -9.78625 31.4903 9.12895 0.0199152 0.00334891 0.0232968 
533 2 10.5669 32.5665 7.51943 0.0468753 0.0214926 0.0296374 
513 1 11.373 31.9946 7.99159 0.0196168 -0.00405445 0.0104987 
522 1 11.2568 30.7656 7.29397 0.00166536 -0.0345067 0.0190326 
193 1 2.89273 27.4316 11.8275 -0.0170666 -0.0123042 -0.0130316 
535 2 11.6409 24.2621 11.2161 -0.0889786 0.0360479 0.0240933 
521 1 11.9467 32.2485 9.3478 -0.0161829 0.016969 0.0136212 
529 2 10.7112 30.7026 12.7878 0.046643 0.0481631 -0.000790601 
205 2 2.30366 27.735 12.6784 0.0627204 -0.0183609 -0.0610142 
206 2 -0.586797 28.4302 12.416 -0.0273386 -0.0401441 0.00222815 
503 2 -7.52076 35.1196 12.8708 0.0618544 0.0457978 -0.0263327 
504 2 0.644964 14.0909 34.9597 -0.0113414 0.0241032 0.0486061 
519 1 11.3346 28.4957 12.3454 -0.00957918 -0.0330219 0.0189644 
168 1 -12.0236 34.1251 14.285 -0.0252428 0.0407388 0.00528527 
156 1 -11.5199 35.0993 15.3963 -0.00797345 -0.00101797 0.00135603 
71 2 -0.224678 14.4222 34.9612 -0.0269447 0.031251 -0.0500938 
263 1 -4.20816 32.7856 35.7694 -0.00258034 0.00378528 0.00401799 
175 2 -11.5272 35.9957 12.1446 0.0162028 0.0287303 -0.0174206 
180 2 -11.58 33.5245 13.7636 -0.0724244 -0.0747428 -0.0267129 
279 2 -8.73857 32.7356 29.5463 -0.0328697 0.0155048 0.0162253 
280 2 -8.31351 30.4885 30.7836 -0.0478556 -0.0157771 0.0228365 
268 1 -7.12538 30.8078 30.9685 -0.00389649 0.0156369 0.0166415 
275 1 -2.59537 30.2973 32.3533 -0.020022 0.00458211 -0.018774 
272 1 -3.2629 31.0258 31.3171 -0.00980438 0.0126044 0.00213273 
267 1 -8.1248 33.3129 30.3699 0.0124775 -0.00033259 0.013078 
277 2 -9.07002 35.3545 30.5411 0.00977208 -0.00939597 -0.0122506 
253 1 -6.23383 33.9333 32.6681 0.0153511 -0.0182853 0.0210064 
261 1 -6.06686 35.0571 34.8136 0.0141029 -0.00547775 0.0158518 
255 1 -5.52658 33.8252 33.8665 0.00158589 0.00980014 0.02475 
269 1 -7.03845 35.7131 34.3308 0.0313098 -0.000132427 0.0130688 
266 1 -7.48047 35.8808 33.031 0.00799661 0.00363695 -0.03119 
259 1 -7.22983 34.8592 31.8399 -0.0220939 -0.00596884 0.000278289 
265 1 -8.34683 34.6499 30.9005 -0.0265383 -0.00542723 0.00647094 
260 1 -7.57157 32.2187 31.0326 -0.0112561 -0.00144851 0.0127814 
264 1 -3.05967 31.1305 33.5602 -0.0120558 -0.00623555 -0.00117805 
262 1 -4.76198 30.5711 31.5765 0.0131602 0.00754324 0.000151308 
276 1 -3.07589 30.7669 35.0177 -0.0134603 -0.0123414 -0.00943312 
257 1 -4.81677 32.7098 34.4117 0.00630794 0.0240197 0.00369733 
271 1 -5.90062 30.2012 30.7991 0.00467996 -0.00196274 -0.0115573 
256 1 -5.25999 31.6656 32.4 -0.017316 -0.00619553 -0.0245397 
254 1 -6.48707 32.5271 32.1506 0.00172176 -0.0102378 -0.00888031 
258 1 -4.22705 32.0183 33.3616 0.00529053 0.0107631 -0.00350631 
288 2 -2.79624 29.6405 35.1094 0.112219 -0.0195293 -0.0355469 
531 2 11.2936 27.9773 13.5195 -0.024187 -0.0997452 0.0250894 
270 1 -4.78231 35.0961 35.5258 0.0161671 -0.00521825 -0.0359746 
517 1 11.1621 30.0686 12.0493 0.00103502 0.0292056 0.00469959 
572 2 20.8309 -11.0067 -7.33659 -0.0118871 -0.0752291 -0.0735072 
104 2 26.2709 10.2086 -8.89095 -0.030381 0.00175438 -0.136976 
91 1 28.9676 10.8857 -9.03745 0.015112 -0.0223515 -0.00512427 
92 1 26.6189 11.0621 -8.07661 -0.0213598 0.0128394 0.00325332 
88 1 29.5026 9.87129 -8.91102 -0.00222404 0.00826261 -0.00474186 
103 2 28.6666 9.2627 -8.23896 0.00101135 -0.0609696 -0.000295576 
95 1 25.7501 11.4813 -7.08472 -0.000671678 0.0130429 -0.0318297 
107 2 25.3188 10.7926 -6.3229 -0.0247349 -0.0151204 -0.0735333 
394 2 25.4491 -0.940556 -1.40456 0.0614481 0.0163912 -0.0209232 
144 2 25.0704 -0.981508 -1.54226 -0.11439 0.0551336 0.109805 
332 1 13.1853 3.7072 5.03434 -0.014839 0.0090484 -0.000689487 
326 1 12.7817 4.88104 4.46759 0.00400452 -0.0027263 -0.0365933 
349 2 16.1497 4.80804 6.37835 -0.0643033 -0.0340068 -0.0825196 
337 1 15.2722 4.80982 5.71912 -0.00603636 0.00673923 0.0252814 
339 1 14.6301 3.59343 5.59643 0.0169914 -0.0254724 0.0181061 
351 2 14.9312 2.50769 5.95611 -0.0319355 -0.0736579 -0.0443628 
354 2 12.2207 10.8069 4.89286 0.0176362 -0.00250543 0.0455003 
350 2 16.2111 7.1722 6.80275 -0.0222475 -0.0112005 -0.00397083 
338 1 15.5491 7.30616 5.90111 -0.0119378 0.0178869 -0.00633705 
353 2 15.1441 9.04115 6.61448 0.0375361 -0.00888092 0.0347487 
342 1 12.4431 9.69043 4.51363 -0.0204837 -0.013028 0.00667048 
341 1 14.7237 8.48413 5.71788 -0.0299242 -0.0172272 0.0104197 
331 1 14.7384 6.2171 5.30888 0.0158146 0.00225004 -0.00212332 
325 1 13.5764 6.14064 4.67515 -0.00561307 -0.0283222 -0.00125003 
327 1 13.0927 7.48635 4.30868 0.0136732 -0.0121561 0.013296 
333 1 13.4973 8.61876 4.68471 -0.00713079 -0.0014584 0.0239224 
82 1 27.8546 11.7735 -8.45267 0.0191143 -0.0228627 0.00464189 
340 1 12.2513 2.69547 4.54284 0.00643297 -0.00731541 0.00069596 
563 1 20.1741 -11.8502 -7.60954 -0.03016 0.0046923 -0.0124623 
411 1 15.6388 -2.59692 20.9272 -0.0189787 0.0413323 -0.00883452 
423 2 16.137 -3.0417 19.1936 0.0595084 0.116337 -0.0756471 
427 2 16.4653 -3.06719 21.5302 0.046816 0.0598636 -0.00299949 
409 1 15.2847 -2.9018 19.6163 0.0188201 -0.0289523 -0.0366433 
404 1 14.5259 -2.60219 22.1286 -0.0288653 0.010528 -0.0121358 
398 1 13.1522 -2.83754 21.5572 -0.0195156 -0.00718552 0.00495901 
415 1 12.0438 -2.74375 22.6904 -0.00312621 0.00210028 -0.0258659 
403 1 13.7657 -3.05464 19.1169 0.0325946 0.0102913 0.00251729 
397 1 12.6443 -2.66986 20.163 0.0206642 0.0242908 -0.0218097 
419 1 12.4591 -1.89212 26.5386 0.00801905 -0.00273782 -0.0132941 
413 1 13.3213 -3.83994 17.9985 0.0171163 0.0157272 -0.00381621 
416 1 12.8023 -2.09382 25.104 -0.00576496 -0.0129795 -0.023093 
424 2 14.8651 -0.644326 23.4215 0.0253349 -0.00821414 -0.0115389 
412 1 14.1584 -1.50135 23.0505 -0.0358859 -0.0131363 -0.033014 
406 1 12.9088 -1.98348 23.6552 0.0147245 0.0185657 0.015564 
29 2 13.02 0.113381 18.8092 -0.0676708 -0.0113448 -0.0295977 
431 2 13.4248 -1.79788 27.0829 -0.0576155 -0.0758229 0.041768 
410 1 13.0244 -4.42737 17.0729 0.037119 -0.0167138 -0.00128773 
14 1 12.3164 -0.253692 19.4134 0.00575089 0.00115701 0.0224276 
422 2 12.1372 -5.21298 16.8468 -0.0223818 -0.0707833 -0.0953642 
76 1 28.2647 12.8344 -7.7111 0.0135321 -0.014918 -0.0217312 
74 1 29.5681 13.4647 -8.08036 -0.0160509 -0.0144412 0.00252203 
355 2 29.8996 13.6501 -9.07757 0.0989561 -0.00740866 -0.0180746 
97 2 32.0244 14.3824 -8.41088 0.0243431 0.0414127 0.104827 
79 1 31.6295 14.2644 -7.1523 -0.000735401 0.00302973 0.00507133 
73 1 30.3175 13.6645 -6.92964 -0.009046 -0.00794454 -0.00972237 
86 1 32.3479 14.417 -6.07606 -0.01489 -0.00382483 0.00218799 
567 2 15.2786 31.0154 -4.85708 0.00160382 0.0362998 -0.000476408 
568 2 13.5703 33.59 -7.70144 -0.00210672 -0.00150435 -0.0231396 
556 1 14.5914 33.4797 -6.89601 0.0174129 -0.00494817 0.0150825 
559 1 15.8746 33.7559 -7.30679 -0.00202762 -0.000817317 0.0126664 
571 2 15.848 34.0519 -8.38653 0.0342186 -0.0434725 0.0717086 
555 1 14.5024 32.9836 -5.52784 0.00695357 -0.0231423 0.0183586 
550 1 17.0801 34.0043 -6.54458 0.0135648 0.0198719 0.00141389 
548 1 14.189 31.5696 -5.13644 0.00778421 -0.00806775 0.0163749 
532 2 13.085 26.1703 11.5135 0.0237195 -0.0552632 -0.0252278 
552 1 19.3132 35.2275 -7.49486 -0.0134739 -0.000150294 0.00701104 
560 1 18.1949 34.6629 -7.08069 0.0169849 0.00864385 -0.0146436 
576 2 20.9778 33.0937 -6.45426 0.0409859 0.0161854 -0.0335092 
84 1 26.3396 12.6625 -6.3809 -0.00773594 0.0234958 0.00415805 
96 1 25.7191 13.3054 -5.24728 -0.0192773 -0.00436411 0.0304818 
78 1 27.4884 13.3829 -6.53952 -0.0160865 0.0116085 -0.0284697 
94 1 26.6474 13.3235 -4.27489 0.0107517 -0.00573976 0.0128724 
102 2 28.2629 13.3669 -1.83956 0.0320094 -0.098927 0.0440402 
77 1 28.3482 13.816 -5.41179 -0.000938146 -0.00295957 0.0162916 
83 1 27.9014 13.521 -4.15015 5.75156e-05 0.000134851 0.0139725 
93 1 28.6431 13.1744 -2.81015 -0.00355644 -0.0166728 -0.0142045 
75 1 29.9387 13.6752 -5.45993 0.00838697 0.0124981 -0.00579587 
106 2 24.5312 13.1996 -5.46076 -0.0635472 0.0222337 0.0266383 
89 1 32.0743 14.4728 -4.687 -0.0037497 0.00609906 -0.0132521 
101 2 33.0967 14.8043 -4.48549 -0.0241353 -0.050283 0.050816 
81 1 30.8237 13.7136 -4.31387 0.031058 0.00290547 0.011167 
90 1 29.8532 13.7012 -3.25483 -0.0371482 -0.00966414 0.00129846 
385 2 34.5886 13.8994 -11.2374 0.0146404 -0.0207144 0.0447117 
105 2 12.2835 26.8368 -7.76272 -0.0864749 0.0188619 -0.0835811 
566 2 15.1606 28.7732 -1.8066 -0.00892883 0.0520213 0.00765435 
554 1 14.7751 29.7798 -2.09143 -0.0211522 -0.0385126 -0.00596335 
557 1 14.1056 29.8044 -3.14011 0.0136971 0.0105533 0.00123963 
553 1 12.9672 30.6707 -5.11224 0.00220305 0.0121352 -0.0281869 
547 1 13.5134 29.6927 -4.14163 0.00269117 0.0204728 -0.0122422 
541 1 15.2672 32.7808 -3.25451 -0.00384687 -0.00665395 0.0214717 
542 1 15.6337 33.2033 -4.61071 -0.00376013 -0.00402406 0.0235316 
549 1 16.2152 30.5936 -2.01076 -0.00774381 0.030238 0.00596403 
543 1 16.3068 31.8518 -2.7733 -0.00739334 -0.00830731 0.0103915 
545 1 17.8453 32.1275 -3.4712 -0.00788185 -0.00636447 -0.0380342 
544 1 17.1185 33.485 -5.2871 0.00241569 -0.00374241 0.000162595 
558 1 17.0773 30.1933 -0.902223 0.00844668 -0.0152385 0.0182143 
569 2 14.3061 32.454 -2.85064 0.00294594 0.0497975 -0.0606184 
570 2 17.6039 29.6849 0.00668296 -0.0144682 -0.0621177 -0.0800742 
573 2 19.8805 32.1881 -2.71774 -0.0987306 0.0225744 -0.0415368 
562 1 20.747 32.7638 -5.56459 -0.0111388 0.00332794 0.000407881 
561 1 18.3665 30.799 -1.46721 -0.00243611 -0.00840617 0.0118185 
551 1 18.8442 31.556 -2.64155 0.00570263 -0.0348614 -0.0291186 
421 2 21.4732 32.3417 -4.78611 -0.0229732 0.0136304 -0.0415711 
546 1 18.1158 32.8668 -4.5383 -0.00392664 0.0350647 0.00076015 
564 1 19.4956 32.9429 -5.05216 0.00617931 0.0183863 -0.019783 
464 2 16.805 25.1793 15.3736 -0.163701 0.138031 -0.0468049 
64 2 17.231 25.4751 15.5325 -0.0826006 -0.0150055 0.00210126 
520 1 12.1265 26.2952 12.0592 0.0191049 0.00967886 -0.00343483 
575 2 19.8405 18.2293 29.355 -0.106672 0.0848452 0.0111124 
177 2 32.9971 34.4657 30.6205 -0.0864123 0.0731682 -0.0167069 
352 2 45.2924 4.21779 -9.94168 -0.0459278 -0.0266452 0.0155552 
574 2 45.3085 4.64462 -10.9173 -0.0269158 0.0209301 0.0205421 
278 2 59.773 6.64308 -7.31065 0.0223916 0.0500461 0.00564579 
137 2 39.3938 -8.61178 23.7991 -0.0132059 0.0251219 0.0294085 
130 1 37.2354 -10.1932 29.5312 0.00927729 0.00392565 -0.010282 
142 2 37.3005 -8.06521 28.4178 -0.0193587 -0.0591105 0.0216535 
119 1 37.8495 -9.04432 28.3158 -0.027766 0.00789043 -0.00766369 
129 1 37.8123 -9.83802 27.0814 -0.00925783 -0.00277158 0.0102901 
141 2 37.7791 -10.9843 26.9099 -0.0677811 -0.0374356 0.032917 
114 1 40.2974 -8.92361 29.3326 -0.000739746 -0.00355136 0.0146601 
113 1 39.3034 -8.72361 28.2255 -0.0129757 0.011608 0.0297079 
126 1 38.6968 -9.53427 25.9398 -0.0226999 0.0199386 0.020665 
111 1 39.9889 -7.86993 27.1941 -0.0254548 0.00368199 -0.0185799 
138 2 38.1408 -9.11827 24.9874 -0.059508 -0.00893129 -0.0245317 
117 1 39.4925 -8.26838 25.9173 -0.0365803 -0.015516 0.0181581 
125 1 39.6598 -7.98712 24.5514 -0.0187353 -0.00937774 -0.0119742 
122 1 40.559 -6.67563 24.4519 -0.000979933 -0.00301456 -0.0181805 
115 1 41.4487 -6.53936 25.8404 -0.0208494 -0.0169587 -0.0084513 
109 1 41.1024 -7.4249 27.0442 0.00383396 -0.0169763 -0.0265976 
110 1 41.7993 -7.20627 28.3854 -0.00691376 0.00978042 0.00918792 
121 1 43.0415 -6.32761 25.9651 0.00597653 0.0087641 -0.0293564 
123 1 43.9236 -7.33343 26.6208 -0.0105343 0.0094808 0.000775815 
112 1 41.2963 -7.87319 29.605 -0.00953215 -0.0101423 -0.010489 
116 1 43.1142 -7.24443 27.9824 0.00138214 0.00600873 0.039335 
124 1 43.8277 -7.36422 29.4058 0.00408825 0.0215052 -0.0419448 
139 2 44.8905 -7.61959 29.8658 0.0276188 -0.00381548 0.0659957 
134 2 41.3176 -6.48268 23.707 -0.0189 0.0742786 0.0496176 
132 1 38.3304 -10.0693 30.155 0.00830137 -0.00415805 -0.0176069 
120 1 39.6566 -9.90394 30.3037 0.000114983 0.0187784 -0.0215051 
131 1 40.2538 -9.81511 31.6261 -0.00168827 -0.000784969 0.0151331 
143 2 40.1711 -10.7543 32.338 0.0192329 0.00161911 -0.0686269 
128 1 41.5205 -9.32691 31.7526 -0.00721499 -0.00954801 -0.0256653 
496 2 43.6986 -8.56889 31.4699 0.102335 -0.00277166 0.0025846 
118 1 41.8743 -7.98376 30.8976 -0.0280743 0.0168157 0.0114593 
127 1 43.2642 -7.97638 30.5387 -0.00265265 -0.0132229 0.0325559 
140 2 42.1874 -9.67312 32.3486 -0.0364743 -0.00584291 -0.00672354 
49 1 50.2244 28.6916 -0.00658358 -0.00498172 0.00474236 0.0156649 
44 1 51.7433 28.104 -0.132034 -0.0173098 0.0175025 0.00536936 
38 1 52.5013 28.9424 -1.05181 -0.0236476 0.00944858 -0.0292935 
55 1 54.6089 27.2717 0.373192 -0.00651791 0.00541707 -0.00290494 
43 1 50.4411 29.824 -0.85196 0.00914832 -0.00738214 0.0104807 
37 1 51.7314 29.7178 -1.72155 -0.0182024 -0.0287964 -0.00336942 
70 2 56.6327 30.0288 -4.58021 -0.0614552 -0.0352955 0.0349439 
72 2 55.3723 27.1409 -4.63066 0.00746304 -0.071298 -0.00480113 
68 2 56.8101 26.9836 -2.0707 0.0218534 0.00279125 0.00251084 
56 1 55.3762 27.6064 -3.71401 -0.0202958 -0.00375691 -0.010065 
59 1 55.8333 27.3524 -2.29197 0.0117621 0.0156934 0.0241406 
46 1 54.8761 27.5115 -1.0267 -0.0113517 0.000435807 0.0160224 
40 1 53.7779 28.4774 -1.82664 0.0194945 -0.0284822 -0.0331564 
42 1 53.8984 29.5462 -2.65228 0.0258122 0.008345 0.0230777 
48 1 55.0521 29.146 -3.50736 0.012197 0.0271892 -0.00740216 
41 1 53.092 30.5009 -3.44743 -0.00433381 -0.00688245 0.00720711 
65 2 48.5083 30.7711 -0.695235 -0.091705 -0.0661758 0.0865716 
50 1 49.2924 30.7126 -1.29065 -0.00235841 0.0129477 0.00993328 
53 1 49.7247 31.3278 -2.35459 0.00881065 -0.0132053 0.00358435 
45 1 50.8472 31.5053 -3.05746 0.0143156 -0.00591146 -0.00919075 
39 1 51.8552 30.6518 -2.76588 0.0165526 0.0136727 0.00935213 
62 2 50.7238 32.0962 -4.02522 0.0354712 -0.0765633 -0.0278818 
66 2 55.0403 34.0819 -5.64167 0.0202233 -0.0685814 -0.0641618 
57 1 53.5367 32.7416 -5.03185 0.0228726 -0.0178472 -0.000266064 
47 1 53.8706 33.5227 -5.70769 -0.00917046 0.00360173 0.00113589 
69 2 55.9471 31.5309 -5.70199 -0.0632865 -0.124114 -0.0361138 
54 1 55.0878 31.1788 -4.91988 -0.0264314 0.0215884 0.0252148 
58 1 53.5663 31.2748 -4.41573 0.00784929 -0.0120549 0.0141139 
60 1 55.8594 30.1727 -4.21133 -0.0207685 0.00390195 -0.0133704 
540 2 40.2763 26.0154 -0.796503 0.02138 0.0144247 -0.0304997 
537 2 39.8627 25.5071 -1.15429 0.0274946 -0.0260507 -0.0682079 
61 2 49.6311 28.129 0.74327 -0.00420719 0.0804521 -0.0107342 
51 1 52.1509 27.0268 0.691821 0.0124464 -0.00150947 -0.000932784 
52 1 53.3555 26.7494 0.98272 -0.0143887 -0.00218601 0.0126352 
63 2 51.4212 26.417 1.36632 -0.0935895 -0.0776239 -0.0957671 
67 2 53.2261 25.9189 1.84108 0.0230988 0.0595982 0.128856 
179 2 46.3033 35.7065 16.6748 0.0222243 0.0709176 -0.0454747 
539 2 47.1626 35.3509 16.8944 -0.0492688 0.00371015 -0.0376157 
210 2 55.8856 19.6167 23.3995 0.0228172 -0.039539 -0.0164686 
284 2 57.026 19.8921 23.5144 0.03116 -0.0832497 -0.0551035 
372 1 80.085 -11.6741 8.92629 -0.00554255 -0.0118273 -0.0192391 
387 2 76.4027 -6.19881 7.91934 -0.0730542 0.0685762 0.150506 
375 1 75.6676 -8.36246 8.18618 -0.013483 0.0147675 0.00540952 
373 1 76.5496 -7.29159 8.34017 0.00486115 0.0198242 0.00526244 
367 1 77.4863 -7.21585 9.60396 -0.00540636 0.00727719 -0.0228775 
374 1 78.5624 -6.23157 10.0491 0.00116884 -0.0283125 0.0053077 
377 1 79.5856 -6.15794 11.0106 0.008483 0.00787276 -0.0344632 
135 2 63.5139 4.25636 11.51 -0.0835072 -0.028949 -0.0851686 
361 1 77.8692 -8.48927 9.90656 -0.0128871 0.0248808 0.0309761 
368 1 76.4566 -9.54961 8.20642 0.00630581 0.0167298 -0.00762205 
362 1 77.3016 -9.60259 9.27841 0.0341496 -0.00582752 -0.0231193 
388 2 74.8486 -8.24753 7.31829 -0.016327 0.0638122 -0.0679767 
376 1 76.4522 -10.8079 7.39424 0.00288201 0.00344721 0.0194062 
18 1 69.5118 5.37997 11.6838 0.0117309 0.0210126 -0.0177511 
369 1 80.003 -7.54097 11.3395 0.0242842 -0.0136433 0.0344947 
366 1 79.4953 -10.5581 9.20583 0.0116421 0.00586013 0.0301698 
365 1 80.1659 -9.63507 9.99279 0.0266001 0.00637227 0.00886561 
32 2 70.6939 11.7858 11.4459 -0.0359467 -0.0103896 0.0352618 
381 1 81.3536 -9.47128 11.9849 -0.0175765 -0.0155824 -0.00327003 
371 1 81.34 -9.99087 10.5212 0.000852394 -0.020664 0.0254568 
382 1 82.0187 -10.8237 9.65805 0.00328743 0.00874499 0.0270734 
164 1 83.3384 -10.9358 9.99334 0.0253138 -0.00371767 0.00249575 
363 1 79.3836 -8.58802 10.4687 -0.00242584 -0.00839219 -0.0198629 
389 2 80.5163 -5.69534 10.9615 0.00556227 -0.03344 0.0210651 
364 1 78.1627 -10.7274 9.09585 0.0100953 0.00982343 0.0153494 
167 1 83.4959 -10.5838 11.3513 -0.0059156 0.00366618 0.00690249 
13 1 75.3798 6.80933 11.572 -0.0135527 -0.00588061 -0.00170064 
9 1 71.0356 5.50004 11.5609 0.0196662 0.0252951 0.00381672 
1 1 73.1486 7.69371 11.0369 -0.0323358 -0.0082903 -0.0211175 
386 2 78.0636 -5.35245 9.84456 0.0755611 0.0139166 -0.0427374 
26 2 71.7237 4.82968 11.9071 0.047139 0.0538891 -0.00125507 
34 2 66.1705 8.69937 11.5472 0.00200093 0.0902738 0.0385123 
22 1 67.2683 8.51275 11.5143 -0.0143156 0.0180023 0.00629968 
11 1 68.3385 7.48178 11.4355 0.0192995 -0.0208414 0.00307858 
370 1 77.4155 -11.5918 8.19664 0.0024751 0.00877436 0.0120878 
36 2 66.6303 10.1731 10.1764 0.0755215 -0.0199778 -0.0185684 
23 1 69.286 10.9616 9.73975 0.0122435 0.00816212 -0.00890722 
20 1 70.473 11.4034 10.466 0.0121852 0.0300339 -0.00529133 
12 1 68.823 9.73607 10.3906 0.00409032 0.0162203 0.0302855 
6 1 70.048 8.87512 10.7249 0.0250019 -0.0145214 0.000850608 
24 1 67.4874 9.68049 10.8087 -0.0180278 0.00449723 0.0300862 
5 1 69.8349 7.68385 11.3388 -0.00992108 0.000588761 0.00362744 
3 1 70.916 6.96038 11.297 -0.0146495 -0.00566965 -0.00510798 
4 1 71.4785 9.29035 10.3478 0.0116306 -0.00284612 -0.0196317 
35 2 68.6373 10.9965 8.71069 0.0461844 0.0393444 0.0200113 
2 1 71.9595 7.99571 10.8824 0.00194753 -0.0139596 0.0353575 
10 1 71.7902 10.7471 10.4285 0.0132414 0.0188865 0.0248586 
7 1 74.293 7.53048 11.5076 -0.0385774 -0.0128104 0.0364389 
25 2 75.8866 6.32388 10.7293 -8.98355e-05 -0.0402607 -0.0098984 
19 1 73.0655 11.5062 10.4491 -0.0166992 0.0111434 0.00862052 
379 1 75.4167 -11.788 7.36043 -0.00382567 0.0162628 0.00444755 
30 2 69.7091 4.87462 10.5962 -0.0649074 0.00339647 -0.0929025 
390 2 83.7896 -11.7556 9.46096 -0.0436423 0.0849259 0.0111616 
283 2 60.693 7.13823 -7.16727 0.0211991 -0.0108561 0.0835166 
145 1 83.0931 -10.7685 16.3212 0.0110015 0.0226484 0.0127045 