ITEM: TIMESTEP
520000
ITEM: NUMBER OF ATOMS
576
ITEM: BOX BOUNDS pp pp pp
-1.2000000000000000e+01 8.4000000000000000e+01
-1.2000000000000000e+01 3.6000000000000000e+01
-1.2000000000000000e+01 3.6000000000000000e+01
ITEM: ATOMS id type x y z vx vy vz 
522 1 -10.6558 -8.18944 -10.8869 0.0231091 0.0142635 -0.00393624 
534 2 -9.38421 -9.09528 -9.96452 -0.0146971 -0.0483759 0.0933819 
457 2 -3.97744 -5.92727 -8.45623 0.0966611 0.00525877 -0.101073 
439 1 -5.79731 -6.83152 -7.45941 0.01251 0.0146433 -0.0189392 
525 1 -10.5395 -9.2119 -9.79331 0.00984336 -0.00374927 -0.00736618 
538 2 -10.3608 -10.2604 -6.91989 0.0252828 0.0665205 -0.0411484 
460 2 -1.78926 -10.0398 -7.26731 -0.0102533 -0.0037897 -0.0309397 
459 2 -3.25103 -8.45579 -9.2002 0.0191045 0.0193993 0.0887511 
447 1 -3.86199 -8.27721 -8.28823 -0.0125363 0.00697728 0.00554898 
448 1 -2.77498 -9.49916 -6.67444 -0.00804988 -0.0152354 0.00683964 
440 1 -3.64132 -8.46456 -6.70122 -0.0325409 0.0310465 -0.0173309 
445 1 -4.32347 -6.82049 -8.107 -0.000532434 0.00557128 -0.012392 
446 1 -6.96452 -6.06005 -7.57973 0.0138998 -0.0256741 -0.0114862 
458 2 -7.25877 -5.55277 -8.44763 0.0813455 0.0552527 0.042046 
443 1 -6.53624 -6.81144 -2.18212 0.0149047 0.0191063 -0.00415488 
454 1 -6.40086 -7.49461 -0.966978 -0.0108537 0.00684412 0.0195156 
435 1 -6.68668 -7.19837 -4.92465 0.0071778 -0.00358295 -0.0228649 
466 2 -6.92459 -7.19874 0.0543433 -0.0420576 0.0268678 -0.000932305 
437 1 -6.30962 -7.56609 -3.60369 0.0113026 -0.0138034 -0.0234459 
455 1 -3.90564 -9.98885 -2.06611 -0.00128741 0.0194248 -0.0153744 
452 1 -2.8662 -10.3686 -2.96305 0.000876093 -0.00260511 -0.0105422 
463 2 -1.82287 -10.9291 -5.21005 -0.0116601 -0.0441757 0.010067 
444 1 -4.58295 -8.7615 -2.05291 -0.007178 0.000392431 0.00451937 
438 1 -5.00343 -8.33456 -3.35167 0.00921217 -0.0242323 0.0242061 
442 1 -3.43102 -10.0344 -4.39781 -0.00651901 -0.0334735 -0.0103465 
436 1 -4.54055 -9.02853 -4.43825 -0.000270314 -0.014859 0.018876 
451 1 -2.62967 -10.2985 -5.4788 0.0113305 -0.01937 -0.00128922 
467 2 -4.6196 -11.0076 -2.04331 0.0288704 0.00234752 -0.00346541 
434 1 -4.9193 -8.59028 -5.90665 -0.017276 -0.0246936 0.00116714 
433 1 -5.64191 -7.48274 -6.10063 0.0107863 0.0126476 -0.0461467 
456 1 -5.47285 -8.54078 -0.930905 0.00134075 0.0280809 0.0150463 
468 2 -5.12894 -9.3857 -0.16115 0.0452118 -0.0476245 0.00184983 
465 2 -7.2739 -4.62077 -1.97408 -0.0377743 -0.0897794 0.0436702 
453 1 -7.58219 -5.59627 -2.32748 -0.0075025 -0.00149999 -0.00756881 
449 1 -7.56262 -5.72539 -6.32943 0.00193531 0.00369214 0.010655 
461 2 -8.59082 -5.21842 -6.3353 0.0846148 -0.0122737 -0.0581837 
441 1 -7.51899 -6.07276 -4.85145 -0.00441713 -0.046378 -0.00668785 
450 1 -8.20537 -5.48238 -3.58054 0.00707976 -0.0209818 -0.00706617 
462 2 -8.86563 -4.62182 -3.40188 -0.0192549 0.0254308 0.0654421 
515 1 -11.4975 -9.80803 -8.93846 0.0106231 0.0281642 -0.00302311 
526 1 -11.0349 -10.6135 -7.71322 -0.00501411 -0.00942275 -0.0024037 
513 1 -11.734 -9.03545 -11.5679 0.00859351 -0.000904211 0.00707824 
530 2 -12.0631 -10.7201 33.7069 0.000931952 0.0356524 -0.0688655 
369 1 3.6613 -9.95583 17.2664 -0.00548125 -0.0040869 0.014816 
363 1 3.67025 -11.2719 16.745 -0.00622794 -0.0110071 0.0128964 
377 1 4.78078 -9.33157 17.2696 -0.00647689 -0.00382813 -0.020355 
361 1 4.97619 -11.9175 16.5656 -0.0277555 -0.0135668 -0.00537499 
389 2 4.58405 -8.38682 17.7142 0.0411583 0.0233621 0.0797507 
371 1 1.34288 -11.2515 16.8843 0.0140055 0.00418118 0.000249045 
521 1 -11.929 -9.16826 35.0908 0.00412503 0.000909411 0.0251036 
378 1 2.48584 -9.23255 17.3903 -0.0112094 0.0180963 -0.0115784 
495 2 1.83645 -8.26089 17.7021 -0.0449674 -0.0101219 0.0370869 
381 1 1.31184 -9.81192 16.8801 -0.0406249 0.0131342 0.0234582 
393 2 0.537859 -9.19286 17.3656 -0.0646311 0.0779428 0.0768326 
382 1 0.343899 -11.8921 17.6335 0.0204942 -0.00258907 -0.0301838 
374 1 6.0487 -9.7743 17.0686 -0.0189042 -0.00281465 0.00521822 
367 1 6.20729 -11.0289 16.3427 0.0106834 -0.0254117 0.0144674 
386 2 6.71261 -8.87638 17.2712 -0.0896886 0.0321244 0.000704539 
373 1 7.27494 -11.922 16.218 0.01052 -0.0203267 0.0104948 
385 2 8.07018 -11.3313 15.8568 0.0287401 -0.0148905 0.0412502 
426 2 -3.07847 2.31052 16.2205 -0.0700533 -0.00736253 0.00258958 
417 1 -3.35384 2.50205 17.38 -0.00114604 -0.00749005 0.0255083 
414 1 -2.40098 3.00269 18.3164 0.00774535 -0.0225542 0.00740111 
429 2 -5.39578 1.48814 16.9164 0.00283755 0.0525994 -0.0398768 
407 1 -4.93169 2.30095 17.6825 0.000796454 0.0147868 0.0280325 
431 2 -7.35855 -1.05042 20.4937 -0.0193418 0.0773021 0.0283862 
430 2 -5.24577 0.303484 18.0429 0.061011 -0.0689682 0.0406055 
432 2 -6.2475 -2.22702 17.7331 -0.0781853 -0.0452456 -0.0201349 
418 1 -6.10883 -1.57422 18.518 0.00473765 -0.024384 -0.0037616 
420 1 -5.65963 -0.277902 18.8011 -0.00420045 -0.0115689 -0.027328 
428 2 -8.89542 0.275096 22.1286 0.0140793 0.11421 -0.00408167 
427 2 -9.16449 2.21477 22.0805 0.00526962 -0.0828332 -0.0234666 
416 1 -8.04629 0.770797 21.2262 -0.0139776 0.0196339 0.0231442 
415 1 -8.48527 2.93922 21.916 0.0293249 0.0233197 -2.85422e-05 
419 1 -7.29162 -0.0632871 20.5285 0.00950814 0.00761779 0.00693543 
406 1 -7.92674 2.19085 20.8554 -0.0167636 0.0012251 -0.0086029 
412 1 -8.45107 4.33756 21.939 -0.0217167 0.00577092 -0.0257376 
404 1 -7.16361 4.84047 21.2905 -0.00670193 -0.031666 -0.0240437 
424 2 -9.20801 4.72813 22.4384 -0.0579369 -0.0167847 -0.009294 
411 1 -6.36839 5.94204 21.8394 -0.0102315 -0.0127145 0.00447028 
408 1 -6.51384 0.584953 19.7124 -0.0202939 -0.00108776 0.0107754 
402 1 -6.17124 1.75199 19.8423 -0.0242188 -0.00911285 0.00764465 
400 1 -6.84398 2.85641 20.2579 -0.0112999 -0.00421835 -0.0235381 
401 1 -4.90499 2.40451 19.2186 -0.0369613 0.0190094 -0.0136113 
399 1 -3.98764 3.38866 20.0562 -0.0111542 0.00310877 -0.0212865 
397 1 -4.72555 4.26439 20.7767 -0.0135659 -0.00634536 0.00517761 
398 1 -6.09525 3.90913 20.7006 0.00970552 -0.00584895 -0.0116997 
403 1 -4.20737 5.75781 20.7953 -0.00696179 -0.00463738 -0.00960055 
405 1 -2.53469 3.8884 19.33 -0.0226586 0.000695077 -0.0140388 
413 1 -2.05271 5.05216 19.7912 0.00705512 0.014621 -0.00452395 
425 2 -0.982073 5.4598 19.2058 0.0991271 0.041207 -0.0630779 
423 2 -6.55148 6.39077 22.7496 0.0474346 0.00863536 0.00349691 
409 1 -5.20698 6.70848 21.5336 -0.017238 0.00218114 0.000347739 
422 2 -3.01768 7.02494 21.1797 0.0158055 -0.0121352 0.0388124 
410 1 -2.86907 6.2724 20.4939 0.00441302 -0.00419779 -0.00331058 
533 2 -11.0023 -9.07147 34.7819 -0.00142545 0.0594679 -0.0321146 
247 2 -11.4192 23.7905 10.7497 -0.0244724 0.0640956 0.0684828 
99 2 10.4205 33.8941 7.48462 0.0702214 0.0603262 -0.121075 
80 1 10.6812 32.5575 10.5 -0.0134182 -0.0308069 -0.0249608 
85 1 9.99227 33.6554 8.44916 0.0321365 0.00274542 -0.00167775 
87 1 9.962 33.0175 9.54815 -0.0273524 0.00237223 -0.0320071 
100 2 10.2332 31.7023 11.0341 -0.0265525 -0.0490806 -0.03933 
239 1 -9.95023 21.6784 13.7999 -0.0322674 0.0177868 -0.00821314 
252 2 -11.5414 23.0346 17.4903 0.0329081 0.0732007 -0.0253923 
236 1 -10.6869 21.3972 12.5113 0.0123797 0.0101221 0.0218329 
248 2 -8.77264 21.7333 13.9399 0.0136125 -0.0548306 -0.0578729 
228 1 -11.1522 21.7485 14.6114 -0.0176333 -0.000242371 -0.0252432 
251 2 -10.981 20.4429 11.8248 -0.0123953 0.09593 -0.0301543 
86 1 -10.9149 26.9714 24.1074 -0.0228827 -0.00861704 -0.00303854 
362 1 5.12708 34.7319 17.077 0.0149129 0.0198526 0.00489303 
370 1 4.08648 33.099 18.4782 -0.00353561 -0.0167394 -0.0286712 
372 1 2.01529 34.3421 18.5876 0.00590837 0.0121828 0.0164615 
366 1 3.0323 34.9549 17.7019 -0.0306225 9.23275e-05 -0.00480851 
364 1 4.20608 34.4905 17.7907 -0.0105772 0.00621729 0.00717052 
379 1 4.92584 32.0274 17.8489 0.000394766 -0.00894223 0.0253213 
97 2 -11.3985 25.7882 22.0818 -0.00647371 0.00485025 -0.0165204 
376 1 6.25314 32.5407 17.3597 0.0120141 -0.00201993 0.0118278 
368 1 6.39864 34.0076 17.4918 0.00527264 -0.0189989 -0.0112929 
388 2 7.22952 32.2349 18.2061 0.000914174 0.0278948 -0.0025639 
387 2 8.36209 34.3136 16.8535 0.0831467 0.038643 0.0170222 
375 1 7.3564 34.6919 16.6382 -0.0235992 -0.0125351 0.0181072 
88 1 -6.55082 22.24 20.7 -0.0128932 -0.00300163 -0.0269962 
91 1 -6.45008 23.5487 20.557 -0.0167707 0.00215565 -0.00554254 
101 2 -10.6968 28.9669 25.0077 -0.0345351 -0.0345296 0.040821 
89 1 -10.133 28.1677 24.4389 0.0173544 0.00949773 -0.00709631 
81 1 -9.65619 28.7391 23.0443 -0.0074639 0.0139252 0.030157 
75 1 -8.85777 27.7478 22.4175 0.00980598 0.0182776 -0.0202896 
73 1 -9.47012 26.6704 22.1429 0.016649 -0.0104653 0.00788684 
83 1 -7.5453 29.5606 21.5924 -0.0152127 -0.0290372 0.00298795 
77 1 -7.83847 28.0944 21.679 -0.0168333 -0.00678731 -0.0109053 
74 1 -8.50982 25.6612 21.7063 0.0297285 0.0147569 -0.000139399 
79 1 -10.7515 26.1933 22.9137 -0.000125039 0.0231828 -0.00353858 
355 2 -8.92164 24.5925 21.743 0.14902 -0.100028 0.00240688 
94 1 -6.56568 30.2174 20.8452 -0.00402073 -0.0146157 0.0264641 
78 1 -6.98212 27.3519 20.9958 -0.0414489 0.0150354 -0.0190643 
76 1 -7.16605 25.964 21.3421 -0.00725709 -0.00121309 -0.0199858 
82 1 -6.41161 25.1268 20.1833 -0.0112322 0.0261268 0.0146096 
103 2 -6.0915 21.5207 21.3971 -0.0567678 -0.076324 -0.0506925 
104 2 -6.3942 24.8258 18.0657 0.0173629 -0.020836 -0.0673807 
96 1 -5.8074 29.3066 20.0044 -0.00566793 -0.00474775 0.0147986 
106 2 -4.9838 29.6612 19.5495 0.0452104 -0.111206 0.0173937 
84 1 -6.49629 28.0279 19.8145 -0.0282995 0.00327238 -0.000730842 
95 1 -6.03132 26.9157 18.8211 -0.0135692 0.0139282 -0.00103334 
92 1 -6.0709 25.4957 18.8026 -0.00154633 -0.000213333 0.00120616 
107 2 -6.45766 27.5807 17.9241 -0.0953601 0.000531822 -0.0164046 
90 1 -9.2298 29.8691 22.9079 0.0087225 -0.000165983 0.0175731 
93 1 -8.47627 30.5498 22.2438 -0.0165413 -0.00645958 0.00485874 
102 2 -8.12099 31.5952 22.5907 -0.088564 -0.0997215 -0.0755684 
396 2 0.143197 35.3669 19.7246 0.0318952 0.0185758 -0.0386887 
380 1 2.72629 32.3509 18.7983 -0.0157154 0.0224076 0.0141205 
392 2 3.24033 31.5667 18.6884 -0.0179555 0.0776589 0.212949 
391 2 4.62408 31.0436 17.6349 0.0046104 -0.0146783 -0.0194155 
384 1 0.978405 35.2901 18.8901 0.0139043 -0.0142574 -0.00970732 
383 1 1.67019 32.913 18.6332 0.0218504 0.00780621 -0.0158988 
395 2 0.504675 32.6494 18.45 0.0231922 0.0555065 -0.0295614 
98 2 -11.4435 27.1039 25.0611 -0.116936 0.0838146 -0.0574886 
390 2 -0.653917 36.5162 18.2214 0.0387952 0.10763 -0.0262266 
365 1 2.58002 35.9349 16.7934 0.0108958 -0.00295313 0.0180067 
109 1 21.8628 -9.97691 -6.05826 -0.00627324 -0.0284454 0.0281679 
113 1 22.1386 -7.92283 -4.77181 -0.0162959 -0.0164215 0.0285816 
111 1 22.293 -8.67292 -6.05572 0.0119788 0.0073094 0.0287963 
115 1 22.053 -10.6454 -7.4895 -0.00149664 0.0260454 -0.000667358 
117 1 22.4393 -8.05562 -7.44347 -0.00729863 -0.00427116 0.025984 
125 1 22.6524 -8.80714 -8.72864 -0.000729125 -0.0195456 0.00263143 
122 1 22.002 -9.97219 -8.81003 0.0104217 0.0179233 0.00584824 
134 2 21.8511 -10.3825 -9.70848 0.0193438 0.0120056 -0.0171881 
137 2 23.0645 -8.31153 -9.59576 0.0484362 0.0833471 -0.075847 
119 1 21.745 -6.36899 -5.01782 0.0141625 0.00461602 0.00293112 
126 1 22.1086 -6.5668 -7.75013 -0.0215135 -0.00842658 0.0350609 
130 1 21.69 -5.50581 -3.92704 0.000458841 -0.0168774 0.0307183 
141 2 21.8655 -4.854 -6.90574 -0.00617717 -0.030859 -0.0671899 
129 1 21.9837 -5.87104 -6.5164 -0.00618283 0.000610776 0.0126852 
138 2 21.4276 -6.23991 -8.54571 0.00524002 -0.122626 -0.0851261 
132 1 21.0716 -6.13228 -2.80935 -0.0146233 -0.00400887 0.0079806 
110 1 21.8993 -10.8506 -4.83032 0.0117188 0.00377673 0.00834739 
140 2 21.7644 -8.52425 0.400863 -0.0428652 0.0802231 -0.0664077 
112 1 21.3001 -10.0544 -3.77671 -0.00167825 -0.0276325 0.0324879 
114 1 21.5356 -8.53323 -3.72921 0.00291846 0.00813629 -0.0272123 
128 1 21.8192 -7.62511 -0.0631936 0.0170763 -0.0287669 -0.000562177 
131 1 21.3327 -7.76687 -1.31167 0.0141499 0.000920615 0.0083339 
120 1 21.1097 -7.64119 -2.5714 0.00220195 0.0142015 0.00512854 
142 2 21.5916 -4.37894 -4.06941 -0.0513207 0.0980363 -0.0522298 
118 1 20.6112 -10.8638 -2.91371 0.0114919 -0.00864667 -0.0223914 
139 2 19.9995 -10.3961 -2.13271 -0.152028 0.0249382 -0.066744 
143 2 21.7585 -6.76556 0.546344 0.0375672 0.12446 0.0790491 
144 2 21.2083 -5.69308 -1.83679 0.0176381 -0.171416 0.0435475 
121 1 21.8439 -11.9081 -6.80731 0.00846981 -0.018259 0.00975666 
17 1 18.8176 -4.66424 16.054 0.0189154 0.0288808 0.0224137 
29 2 18.506 -3.8358 15.359 0.0100235 0.0400058 -0.00359319 
30 2 17.8916 -1.66792 17.6166 0.02291 -0.02025 -0.107544 
14 1 19.3494 -4.75751 17.3796 0.00839527 0.00695697 -0.0368433 
26 2 20.5939 -4.77291 17.0286 0.063477 0.0315968 -0.024519 
8 1 18.065 -6.66244 21.1168 0.0328124 -0.0109169 0.0109061 
19 1 16.1279 -6.34269 23.483 0.0252442 0.00490371 0.00170414 
31 2 14.5683 -7.7758 23.1731 -0.083013 0.0654643 0.0939073 
28 2 16.0807 -8.38145 22.8888 0.0103476 0.0175762 -0.00911734 
16 1 15.6128 -7.5226 23.4271 0.005082 0.00303841 0.0143292 
15 1 18.8586 -7.41727 20.1488 -0.00970134 -0.0159882 0.0171256 
25 2 19.0918 -8.39865 20.1921 0.0547305 -0.0260645 0.106816 
27 2 17.7192 -6.98686 22.098 -0.0275391 -0.0299114 0.0252917 
13 1 18.8441 -6.61643 18.9162 0.0156088 -0.0185971 0.0167215 
2 1 17.8706 -5.20167 21.0875 -0.0277259 7.47332e-05 0.011307 
10 1 17.0105 -5.17721 23.4943 0.00230583 0.0057006 -0.0182211 
4 1 17.7723 -4.70813 22.4087 0.0059401 0.00811235 -0.0239375 
6 1 17.9896 -3.35805 22.3533 -0.00216507 0.0216908 -0.00096746 
5 1 18.0449 -2.62324 21.0426 -0.011384 -0.0142436 0.00741424 
12 1 17.3008 -2.63712 23.2658 -0.012354 0.0125722 0.00221598 
18 1 18.9392 -0.921841 19.293 -0.0217172 0.00104957 0.0105279 
11 1 17.878 -1.02549 21.1025 0.022068 0.0226796 0.0223257 
21 1 17.9599 0.021055 20.0361 0.0401489 0.00427496 -0.0119365 
33 2 17.5128 0.962861 19.7548 0.0659413 0.110053 -0.00265855 
22 1 16.8792 -0.499091 22.1537 -0.0111006 0.0339682 0.000702399 
24 1 16.738 -1.25279 23.2074 0.0120105 -0.00520613 0.0105992 
7 1 18.5787 -5.20862 18.5978 -0.00817137 0.0367379 -0.0502165 
1 1 18.2942 -4.58558 19.9161 0.000164118 0.00119992 -0.00664978 
3 1 18.11 -3.05703 19.7216 -0.00127169 0.00753839 -0.00713657 
9 1 17.9396 -1.97742 18.6962 0.017861 -0.00768659 -0.0141918 
34 2 15.996 0.303911 21.8938 0.0060192 0.0263011 0.00978812 
479 1 35.7043 9.73018 22.8162 -0.000759993 -0.00234719 -0.0165949 
491 1 33.8238 10.2343 19.5271 0.00516384 0.022991 0.0446155 
488 1 34.1782 10.7635 20.6246 0.0236132 -0.029962 0.00477454 
501 2 32.9591 10.5444 18.8739 -0.0440225 0.0895593 0.0469335 
500 2 33.6475 9.13569 19.9016 -0.002593 0.0556389 -0.0836034 
477 1 34.5129 11.4322 21.7092 0.0114012 0.00943794 -0.00590232 
471 1 35.3463 11.1396 22.6038 -0.0156042 -0.000582991 -0.0223173 
32 2 16.0097 -4.29612 25.7128 0.0263066 -0.0350432 0.0868951 
20 1 16.6063 -4.25245 24.7182 -0.00201813 0.0132108 -0.00562796 
23 1 17.1759 -3.07496 24.4822 0.0139259 -0.010316 0.00726445 
35 2 17.1559 -2.51114 25.3172 -0.0893766 0.0496521 0.0192681 
36 2 16.1303 -0.551771 23.9223 -0.0266815 0.0342531 0.0770168 
133 2 21.712 33.9481 -6.10657 -0.0176796 0.0991538 -0.001186 
123 1 21.6295 35.0139 -5.91355 -0.0263673 -0.0213262 0.0157947 
136 2 20.4835 34.0889 -3.77899 -0.0687172 -0.0192975 0.0599774 
124 1 21.2171 34.9063 -3.73116 -0.0159706 0.0142024 -0.00454013 
116 1 21.8893 35.7276 -4.62205 0.00993885 -0.0180688 0.0159708 
177 2 20.3365 35.9242 -1.55111 -0.0835568 0.0169392 -0.0178447 
127 1 20.773 35.6761 -2.60128 -0.000936594 0.0203977 0.0161588 
485 1 34.4786 12.9053 21.4747 0.0143285 0.00703228 -0.00836082 
482 1 35.5947 13.7565 21.3088 0.00291595 0.0108882 -0.00499299 
498 2 33.6726 13.5243 21.21 0.0146376 0.0421391 -0.0287834 
494 2 35.5531 14.1714 20.2952 -0.0436858 0.0476454 -0.0681378 
537 2 22.9444 25.9868 29.3876 -0.00823169 -0.00938068 0.0168894 
540 2 23.0103 26.3957 29.1279 0.0594398 0.035752 0.0486955 
176 2 18.7329 34.1095 32.4419 0.119544 -0.0885601 -0.0179111 
283 2 35.7105 -11.0891 9.47174 -0.0654982 -0.100655 -0.0291899 
282 2 56.8107 2.4793 -0.68435 -0.0113374 -0.0087017 -0.132619 
135 2 56.0979 2.67269 -1.10991 -0.0439831 0.0173227 0.0594455 
555 1 46.3232 9.28613 32.8689 0.00512391 0.00547853 0.0163572 
489 1 38.3338 4.98808 20.2267 -0.00982237 0.0106158 -0.00374653 
486 1 37.4057 4.26223 19.7947 0.00721278 -0.000233477 -0.00766066 
492 1 39.4372 5.80482 20.8279 0.0099203 0.00456309 0.0157558 
502 2 40.4158 5.16439 21.1385 -0.0459494 0.0124557 0.0722459 
490 1 39.1057 6.90548 21.6143 0.0334409 -0.00707831 -0.0224791 
480 1 38.6384 7.88707 22.2642 0.00122863 -0.000322104 -0.00189156 
473 1 37.8676 9.08029 22.6553 0.0186886 -0.0348815 -0.0395116 
469 1 36.8176 11.9585 22.6063 -0.0033808 0.00912341 0.00178715 
499 2 41.6862 12.2238 22.1619 -0.0454584 0.0867031 0.010645 
487 1 40.8832 11.7596 22.7878 0.00481952 0.0106598 -0.00906361 
483 1 38.5947 11.5054 25.6873 -0.0102807 -0.0208345 -0.0156642 
470 1 38.2241 11.7463 23.0236 0.0130323 -0.00647216 0.00617852 
472 1 38.6623 10.4227 22.5849 0.00941099 0.0117357 0.00576269 
503 2 40.5067 9.6174 22.3698 -0.0430131 0.0412799 -0.00936998 
478 1 40.0841 10.5576 22.3985 -0.00157582 0.0091367 -0.00197293 
556 1 46.5496 8.95607 31.419 0.0173544 -0.000305295 -0.00710419 
504 2 50.6406 -7.12043 27.0171 -0.0105378 0.0243467 -0.0104165 
71 2 50.9924 -6.83599 26.1106 0.0586824 -0.0751994 -0.0485406 
539 2 48.5804 5.01602 30.4906 -0.0890683 0.0186198 0.055025 
179 2 48.6941 5.69231 31.1476 -0.0581219 0.011453 0.00234557 
560 1 45.4285 11.0364 29.2399 0.012405 0.00171276 0.00482631 
572 2 44.742 10.3238 29.1249 -0.0349984 0.0261242 0.0999774 
571 2 47.8754 9.0135 29.4982 -0.0853663 0.0264886 0.0579271 
550 1 46.5191 10.725 30.0733 0.00942489 -0.00976516 0.0012182 
548 1 46.2143 10.7046 32.8963 0.0118008 -0.0195702 0.0222837 
568 2 45.439 9.2281 31.2178 0.0121735 -0.0299132 -0.111581 
559 1 47.4381 9.49199 30.3523 0.0206845 0.00183059 -0.0283857 
567 2 47.0175 8.552 35.1012 0.0776747 -0.035918 0.00472078 
553 1 46.6861 8.10364 34.0425 0.0200973 0.0147613 -0.0125768 
565 2 46.7778 6.99595 33.9576 0.109875 -0.0501726 0.033651 
474 1 36.5546 8.91994 23.2452 -0.00500508 0.0160416 0.00941463 
464 2 56.1689 -8.33518 30.4107 0.0030346 -0.0272878 -0.0706206 
496 2 38.1056 10.3634 25.2111 -0.0484116 0.00381471 0.150629 
497 2 36.5757 7.97914 23.6365 0.00854256 0.0324827 -0.0244936 
70 2 59.4232 23.2069 -4.25551 0.011568 0.075415 0.146259 
63 2 56.3222 15.6839 -8.77265 0.0936048 -0.0127018 0.0216045 
64 2 56.2005 18.1364 -10.0847 0.0438563 -0.0264852 -0.054168 
44 1 56.3024 17.8771 -7.78561 -0.0143206 0.00458114 -0.00793626 
52 1 56.3644 18.623 -9.1095 -0.0292265 0.0341445 0.00179132 
51 1 56.419 16.3838 -7.80594 0.00604321 0.00855969 -0.0190892 
55 1 56.6702 19.9303 -8.75659 0.0177306 0.00714662 -0.0467929 
38 1 56.4828 18.3734 -6.51864 0.00881041 0.0162758 0.00865327 
59 1 57.0724 22.1152 -7.59876 -0.00748278 -0.00796302 0.00500592 
46 1 56.8747 20.8655 -7.71743 -0.00322485 -0.00269953 0.0207139 
40 1 56.9669 19.7595 -6.43949 -0.00592703 0.00983517 0.0257124 
56 1 58.2522 22.476 -6.39332 -0.0221413 -0.000494133 0.0077208 
72 2 59.3403 22.1998 -6.57658 0.0125615 0.0494369 0.0155804 
68 2 58.4958 23.5934 -6.54824 0.047426 -0.0252957 0.0360127 
67 2 57.5084 22.6014 -8.56684 0.0120282 0.080325 -0.0691431 
61 2 56.5299 14.7581 -6.68483 -0.082946 0.01257 -0.0400263 
49 1 56.4554 15.7559 -6.63433 0.0342896 -0.0127362 0.0111729 
53 1 54.3426 15.334 -4.02738 0.0163087 -0.00988472 0.000267848 
50 1 54.8382 16.1517 -4.55037 -0.00925081 0.0362379 0.00655169 
43 1 56.2098 16.5097 -5.4471 0.00290626 -0.00063083 -0.00195478 
65 2 53.4341 15.0744 -3.15905 -0.0520967 -0.000393563 -0.0360054 
62 2 56.4584 17.1896 -1.52335 0.0613051 -0.0346659 0.102021 
45 1 56.9241 18.0039 -2.36192 -0.003114 0.0274392 -0.0196273 
57 1 57.8086 20.0829 -1.37164 0.00505668 -0.0101418 0.0213609 
54 1 57.0886 18.8393 -1.12184 0.0309192 -0.00907364 -0.0138372 
42 1 57.4421 20.4786 -5.34298 0.0116789 -0.00502943 0.0147455 
48 1 57.7752 21.9423 -5.15818 0.000386058 0.00323406 -0.00622896 
37 1 56.8174 17.7648 -4.93108 -0.00161514 -0.0193776 0.01838 
66 2 57.6095 20.7753 -0.546643 -0.0745607 -0.0634995 0.0018083 
69 2 56.635 18.7335 -0.369621 0.0644694 0.0420447 -0.0319831 
41 1 57.4556 19.8882 -3.89855 0.0113134 0.0193901 -0.0126264 
60 1 58.4137 22.7587 -3.99793 -0.0198368 -0.0257358 0.0360494 
58 1 57.997 22.2414 -2.64068 -0.0235945 -0.0210768 -0.00934966 
47 1 57.906 20.6007 -2.68944 0.033577 -0.00584486 -0.016015 
39 1 56.7532 18.7088 -3.76985 -0.014865 0.0259597 -0.0069626 
108 2 37.502 13.7167 22.476 -0.0348399 0.0139717 -0.0388654 
475 1 36.5787 13.2752 22.2487 -0.00398278 0.0418819 -0.0127999 
350 2 41.3503 18.9335 25.2165 0.0339837 0.00446766 0.0102297 
353 2 43.9542 18.1561 24.2719 -0.0679366 -0.0511654 -0.00924184 
566 2 48.0281 15.7202 35.3267 -0.00295277 -0.0687097 0.0505333 
481 1 37.9179 12.5808 26.347 -0.0357829 0.0083988 0.00378946 
493 2 37.657 13.4109 25.7705 -0.0572672 -0.0433872 0.0587222 
484 1 40.1943 12.278 23.8525 -3.03648e-05 0.00507413 0.00353059 
360 2 48.0871 20.5871 30.0042 -0.0396553 -0.00574844 -0.0249777 
563 1 45.2541 12.3021 28.6673 0.0101237 -0.0111442 -0.00972642 
552 1 46.2361 13.3908 28.8313 -0.0163498 -0.00518721 -0.00744201 
575 2 44.2706 13.0269 28.2142 -0.0988123 -0.0832851 0.0297892 
576 2 46.6405 14.3823 27.1871 -0.0362187 0.097041 -0.000323541 
564 1 46.5878 14.6779 28.3166 -0.0141243 -0.0300082 -0.00557742 
562 1 47.0348 15.929 28.9047 -0.0175931 -0.0124928 -0.00944359 
574 2 47.8115 16.7872 28.7058 -0.0115053 -0.000368699 0.0245621 
339 1 40.8722 22.5517 27.1325 -0.0339162 -0.0129269 0.00635949 
332 1 41.8858 23.3842 27.7634 -0.0276033 0.00174745 -0.0174112 
352 2 40.3091 23.6824 29.7071 -0.0540983 -0.00218321 -0.000598603 
340 1 41.2461 23.6705 29.1204 0.0228677 -0.0104293 0.00441748 
337 1 41.0041 21.7985 25.8006 -0.0185578 0.00104611 -0.0243707 
349 2 40.4547 21.5036 25.0503 0.0263637 -0.0555768 0.00686953 
336 1 46.0855 21.3506 29.3686 0.0249996 -0.00385905 -0.0196511 
330 1 45.6697 22.1994 28.2064 0.000169349 -0.00362397 -0.000166942 
328 1 44.2071 22.733 28.5852 0.00508561 -0.023713 0.00202768 
329 1 45.7946 21.4101 27.0158 -0.00938835 0.0282972 0.00607458 
326 1 43.2627 22.8338 27.445 -0.0107515 0.0181944 0.0024804 
327 1 44.5567 21.1091 26.1412 0.0236759 0.00478939 -0.00235519 
348 1 47.5422 20.8741 29.2013 -0.015054 0.00253829 0.032033 
325 1 43.3167 21.4565 26.469 -0.0096794 -0.0220452 0.0130178 
335 1 47.3051 21.0041 26.7598 -0.0226827 -6.82524e-05 0.00218226 
333 1 44.7449 19.9013 25.1557 -0.00288536 0.00889596 0.00339266 
342 1 46.086 20.0693 24.9879 0.0207085 0.0113104 1.48877e-05 
331 1 42.2971 20.8876 25.7406 -0.00708979 0.00234609 -0.0191225 
341 1 43.7179 18.9494 24.8198 0.0126567 -0.019275 -0.00621164 
338 1 42.3188 19.4312 25.1421 -0.015629 -0.0147552 0.00623887 
345 1 47.3327 21.0204 25.3833 0.00714148 -0.0185254 -0.0238275 
354 2 46.1907 19.6185 23.9641 -0.0508371 -0.0252723 -0.0106822 
346 1 48.1673 21.2859 27.9935 0.00978963 -0.0210782 -0.024537 
358 2 49.0501 21.9677 28.0179 0.0704303 -0.0622378 0.0425391 
216 2 48.3289 20.7608 25.0385 0.0351945 -0.0270001 -0.00342994 
351 2 40.0058 22.0269 27.7085 -0.0464341 -0.0190559 -0.0289158 
547 1 46.6551 13.1153 34.5156 0.00850146 -0.00182925 -0.00356843 
541 1 46.4204 13.3633 33.021 0.00308416 -0.00201303 -0.0162459 
356 2 43.4591 21.2097 31.6337 0.0264634 -0.0417 0.10352 
543 1 45.9838 14.4871 32.3083 -0.00864022 0.0357706 -0.0276661 
545 1 46.232 14.5378 30.9587 0.00988229 -0.00407342 0.0253701 
544 1 46.529 11.9458 30.8734 -0.0146077 -0.0231428 -0.0263328 
546 1 46.2901 13.2676 30.3656 -0.0113839 -0.0333083 0.000712365 
554 1 47.8247 13.9785 34.5996 0.00811808 0.0144385 0.0236582 
549 1 46.3956 15.611 33.2427 0.00921481 0.00225152 -0.00581149 
476 1 38.907 12.0572 24.3146 -0.0112825 -0.00667247 -0.0307269 
557 1 47.5288 15.4277 34.207 0.035415 0.0137071 0.0159641 
561 1 47.141 16.612 30.9974 -0.0156218 -0.00983356 -0.0180399 
558 1 47.1022 16.5309 32.4187 -0.0206922 0.00236423 0.0156344 
551 1 46.6573 15.6405 30.3536 -0.0198953 0.0126178 0.000617238 
570 2 47.6744 17.3147 32.8447 -0.0255452 0.0843864 0.0428643 
573 2 47.2734 17.6076 30.6153 -0.0825323 -0.0899139 -0.00804165 
359 2 45.5212 21.0312 31.6389 0.0337839 -0.0276087 0.0165822 
343 1 41.9917 23.0259 30.1253 0.0191036 0.00994258 0.0111332 
334 1 43.4294 22.707 29.7881 -0.000847981 0.036646 -0.0104645 
344 1 44.0203 21.7927 30.86 -0.0148874 0.03439 -0.00443877 
347 1 45.3031 21.3375 30.6163 0.0191687 0.0212121 -0.005948 
569 2 45.9595 13.2456 35.3857 0.0333419 -0.00953006 -0.0215484 
542 1 46.2078 12.0841 32.379 -0.0012989 -0.0255613 -0.00473853 
105 2 62.2823 -11.8145 -9.31028 -0.0396195 -0.0463345 0.00778438 
281 2 63.6625 9.83703 7.95802 0.00124178 -0.0585945 -0.00712719 
259 1 63.5683 11.7516 10.8675 -0.00555837 -0.00958256 -0.0125676 
507 1 83.0557 -9.49019 -10.9319 -0.00756277 0.0194988 -0.00980729 
506 1 80.7693 -10.5576 -11.0434 0.0186742 0.00221334 -0.0119069 
505 1 81.9025 -10.2336 -11.7104 0.0303353 -0.00102143 0.0261319 
509 1 83.4349 -10.206 -9.79969 -0.00893957 -0.0152304 0.0232449 
528 1 83.8104 -11.4655 -7.48369 4.68445e-05 0.0116323 -0.0181802 
510 1 82.3109 -11.1269 -9.28578 -0.000748732 0.00560488 0.00442131 
266 1 63.366 10.4426 10.3172 0.00201097 -0.0144607 0.0253051 
269 1 63.6878 10.4819 8.99445 -0.023345 -0.0103674 0.0201262 
278 2 63.5138 9.78117 11.0999 -0.0347572 0.0467684 -0.0513986 
508 1 81.0268 -11.2865 -9.81477 0.024913 -0.000230305 0.00394677 
516 1 82.5316 -11.8744 -8.03501 0.00397319 0.0164535 -0.00323836 
261 1 63.5536 11.9536 8.27646 -0.0017088 -0.0093292 -0.0114734 
314 2 72.5425 11.7048 -12.6881 0.0492991 0.04732 -0.142873 
512 1 80.1005 -11.6089 -11.9603 0.0192373 -0.00408492 0.0171283 
517 1 81.2276 -10.8627 34.111 -0.0310754 -0.0168621 0.0170681 
317 2 70.8229 12.159 34.8422 0.039727 0.015212 -0.0997759 
511 1 82.2108 -10.646 34.9479 -0.0205539 0.0257401 0.00487691 
519 1 80.2001 -11.5704 34.6515 -0.00115757 0.000803629 0.0204346 
277 2 63.4722 11.2303 13.0241 0.0272843 0.0905023 0.087623 
421 2 74.149 -9.37203 20.4609 0.00981956 0.105561 0.0793619 
518 1 83.5297 -10.3793 34.6248 0.00272162 -0.0207562 0.0131712 
265 1 63.3361 11.9472 12.3246 0.000115073 -0.0168875 -0.00676196 
529 2 81.4806 -11.0414 32.9282 0.0484747 0.0143909 -0.0575405 
292 1 71.8416 15.9145 -7.99371 0.00260597 0.00601266 0.00748302 
300 1 69.7565 16.237 -6.59838 -0.0242748 0.00131182 -0.00584879 
294 1 70.5526 15.4763 -7.64565 0.0064934 0.0360953 0.0070302 
312 1 68.4887 16.7582 -6.36042 0.0100249 -0.0192875 0.00936292 
321 2 68.0932 17.4693 -5.50428 -0.0767103 -0.0026865 0.0484515 
293 1 69.8196 14.7345 -8.91156 -0.0497114 -0.0288454 0.0060562 
310 1 68.5599 14.8956 -8.64672 -0.0122115 0.0100622 0.00935765 
324 2 67.9966 16.7887 -7.37659 0.0318732 0.0081009 -0.013876 
291 1 70.4124 14.0672 -10.3084 0.0010913 -0.0137527 0.0211198 
299 1 67.4494 13.9149 -9.36462 -1.71855e-05 0.00134 0.00731417 
322 2 68.049 15.2481 -7.90507 0.0513486 0.0646772 0.00611654 
297 1 70.0156 13.4619 -11.3965 0.00881224 0.00309329 0.00753543 
289 1 71.8189 14.358 -10.1391 0.0144873 -0.0147157 0.00457142 
306 1 68.494 13.2496 -11.6326 0.00484104 0.00242995 0.0138864 
298 1 72.3234 16.6169 -6.75252 -0.00523138 -0.00578804 0.0129019 
309 1 67.8999 13.4791 -10.5506 -0.000710175 0.0127015 0.0193081 
290 1 72.4759 15.2871 -9.21172 -0.00087937 -0.000227167 0.0195537 
295 1 72.6761 13.6646 -10.9323 0.00206813 -0.0500348 -0.0448998 
313 2 74.8598 13.3795 -11.1323 -0.0298182 0.00811112 0.00686883 
301 1 73.9913 13.5987 -10.4685 -0.000414916 -0.0199112 -8.51477e-05 
302 1 72.3427 12.7554 -12.1239 0.00505547 -0.00237541 -0.0178647 
296 1 73.9288 15.7449 -9.11195 0.00749122 0.00308814 -0.00655989 
303 1 74.5825 14.7717 -9.78123 -0.0100006 0.0052274 -0.0126944 
315 2 75.6613 14.7717 -10.1403 -0.0400803 0.0715976 -0.152875 
304 1 73.9802 17.2587 -8.7301 0.00818428 -0.0282163 -0.0163062 
307 1 73.3377 17.5372 -7.46038 0.0298012 0.0222288 -0.0226533 
316 2 74.4709 18.1803 -9.08546 0.0532398 0.0187691 -0.0758739 
520 1 79.0017 35.759 -11.172 0.0322377 -0.00432922 0.00727895 
535 2 77.7951 35.6343 -9.44437 -0.0128999 0.110687 -0.0154581 
523 1 78.8108 35.6659 -9.81503 0.00288946 0.0074025 0.0140579 
536 2 78.8705 35.6038 -7.40172 0.0699804 0.0907079 0.0101991 
524 1 79.9538 35.6345 -7.68606 0.0126766 0.0294384 -0.00907241 
527 1 81.4466 35.3192 -7.31518 0.0153422 0.0146206 -0.0179575 
287 2 64.8887 18.7852 8.20385 -0.0340178 0.0976693 0.0656285 
514 1 80.0775 35.7514 -9.22736 0.0034258 -0.0036656 0.0322513 
272 1 65.2275 17.9209 10.1795 0.00745068 0.00451427 0.00984408 
244 2 82.4451 25.162 11.9679 0.0562202 0.0312666 0.0460104 
311 1 70.5274 16.8496 -5.41769 0.00156363 0.0179815 0.0119436 
323 2 69.9634 16.6498 -4.55172 -0.0639146 0.033269 -0.033796 
308 1 71.8277 17.2236 -5.48561 0.0102315 -0.00478297 -0.0192069 
320 2 72.1737 17.6463 -4.54773 -0.073325 -0.019376 -0.0391882 
319 2 73.9851 18.0092 -6.76815 0.0585097 -0.00562134 -0.0496118 
273 1 63.8376 13.227 5.79347 0.0314604 0.00249622 0.00680498 
285 2 63.304 13.3179 4.86346 0.00907937 -0.0492904 0.0323295 
286 2 63.61 15.448 4.78561 0.0314091 0.0171904 0.02799 
274 1 63.8992 15.7352 5.76669 -0.016976 -0.00991481 -0.0325682 
288 2 64.4765 17.7926 5.83888 -0.0540203 -0.0561242 -0.022585 
210 2 76.7708 34.7887 3.94088 0.0116459 0.0525515 -0.0100151 
262 1 64.7928 16.3793 10.4105 0.0157467 -0.0036788 0.0239406 
270 1 63.5929 12.3866 6.92817 -0.0131796 -0.0125041 0.0230534 
263 1 63.799 14.4795 6.52136 0.0168803 -0.00976549 -0.00227437 
276 1 64.3813 16.8773 6.39485 -0.0028645 0.0225588 0.0207407 
235 1 83.9195 23.2027 11.5551 -0.00764835 0.000389468 0.0133156 
255 1 64.1242 13.0755 8.81717 -0.00829118 -0.000128384 -0.0181593 
284 2 65.0268 17.9432 11.407 -0.029957 -0.0429846 0.0162476 
275 1 64.6603 18.0552 8.7864 0.0130124 -0.0209165 -0.0198147 
253 1 64.1414 12.9865 10.1544 -0.0283341 0.00950848 -0.0101813 
257 1 64.246 14.1902 7.91413 0.0139029 0.00231044 0.0452552 
254 1 64.2747 14.0992 10.7381 0.0132491 -0.0291085 -0.00830563 