LAMMPS (5 Jun 2019)
#CORONENE NVT
units		real
atom_style	charge

#DATA
read_data	coronene.data
  orthogonal box = (-12 -12 -12) to (12 12 12)
  2 by 2 by 4 MPI processor grid
  reading atoms ...
  36 atoms
  read_data CPU = 0.00475806 secs
replicate 	4 2 2
  orthogonal box = (-12 -12 -12) to (84 36 36)
  4 by 2 by 2 MPI processor grid
  576 atoms
  replicate CPU = 0.000827685 secs

#INTERATOMIC POTENTIAL
pair_style  	reax/c NULL
pair_coeff 	* * ./ffield.reax.CHO2016 C H
fix         	1 all qeq/reax 1 0.0 10.0 1.0e-6 reax/c

#OUTPUT LOG
thermo_style    custom  step temp pe ke etotal press
thermo          1000
thermo_modify  	flush yes

#OUTPUT STRUCTURE
dump		1 all cfg 10000 coronene.*.cfg mass type xs ys zs
dump_modify 	1 element C H
dump 		2 all custom 10000  coronene.*.pos id type x y z vx vy vz
restart		200000 coronene.*.restart

#MOLECULAR DYNAMICS
timestep	0.1
velocity	all create 2000 8983764
fix 		2 all nve
run 		1000
Neighbor list info ...
  update every 1 steps, delay 10 steps, check yes
  max neighbors/atom: 2000, page size: 100000
  master list distance cutoff = 12
  ghost atom cutoff = 12
  binsize = 6, bins = 16 8 8
  2 neighbor lists, perpetual/occasional/extra = 2 0 0
  (1) pair reax/c, perpetual
      attributes: half, newton off, ghost
      pair build: half/bin/newtoff/ghost
      stencil: half/ghost/bin/3d/newtoff
      bin: standard
  (2) fix qeq/reax, perpetual, copy from (1)
      attributes: half, newton off, ghost
      pair build: copy
      stencil: none
      bin: none
Per MPI rank memory allocation (min/avg/max) = 15.68 | 15.68 | 15.68 Mbytes
Step Temp PotEng KinEng TotEng Press 
       0         2000   -75085.961    3427.9316    -71658.03    1549.3913 
    1000     1044.077   -73457.053    1789.5123   -71667.541    89.829131 
Loop time of 5.00332 on 16 procs for 1000 steps with 576 atoms

Performance: 1.727 ns/day, 13.898 hours/ns, 199.867 timesteps/s
100.0% CPU use with 16 MPI tasks x no OpenMP threads

MPI task timing breakdown:
Section |  min time  |  avg time  |  max time  |%varavg| %total
---------------------------------------------------------------
Pair    | 1.6441     | 1.6582     | 1.6738     |   0.7 | 33.14
Neigh   | 0.00074604 | 0.00076036 | 0.00081667 |   0.0 |  0.02
Comm    | 0.15471    | 0.17897    | 0.20485    |   3.6 |  3.58
Output  | 0.00011166 | 0.00013098 | 0.00017775 |   0.0 |  0.00
Modify  | 3.1211     | 3.1225     | 3.1246     |   0.1 | 62.41
Other   |            | 0.04276    |            |       |  0.85

Nlocal:    36 ave 36 max 36 min
Histogram: 16 0 0 0 0 0 0 0 0 0
Nghost:    252 ave 255 max 249 min
Histogram: 4 0 0 4 0 0 4 0 0 4
Neighs:    630 ave 630 max 630 min
Histogram: 16 0 0 0 0 0 0 0 0 0

Total # of neighbors = 10080
Ave neighs/atom = 17.5
Neighbor list builds = 5
Dangerous builds = 0

unfix		2
fix             3 all nvt temp 3500.0 3500.0 10.0
run		10000000
Per MPI rank memory allocation (min/avg/max) = 15.68 | 15.68 | 15.68 Mbytes
Step Temp PotEng KinEng TotEng Press 
    1000     1044.077   -73457.053    1789.5123   -71667.541    89.829171 
    2000     3186.405   -70282.194    5461.3891   -64820.805    223.92299 
    3000    3476.2423   -70305.836    5958.1603   -64347.675   -364.43297 
    4000    3409.9125    -70614.71    5844.4733   -64770.236   -117.40105 
    5000    3431.0125   -70278.002    5880.6381   -64397.364    116.05196 
    6000    3628.3435   -70284.441    6218.8566   -64065.585   -153.20724 
    7000      3518.49   -70610.576    6030.5715   -64580.004    1301.8306 
    8000    3553.9424   -70449.655    6091.3357    -64358.32   -219.74557 
    9000    3609.8735   -70063.689    6187.1996   -63876.489    593.68072 
   10000    3508.0955   -70177.062    6012.7556   -64164.307   -343.73506 
   11000    3460.3091   -70360.939    5930.8513   -64430.088    514.68126 
   12000    3458.9322   -70431.108    5928.4914   -64502.617   -486.20501 
   13000    3504.2491   -70386.986     6006.163   -64380.823    582.26504 
   14000    3309.0769   -70471.792    5671.6445   -64800.148    -427.2002 
   15000    3627.1786   -70599.851      6216.86   -64382.991    92.097559 
   16000    3543.9716   -70371.413    6074.2461   -64297.167    543.63125 
   17000    3412.4632   -70459.696    5848.8452   -64610.851    460.15418 
   18000    3361.8216   -70609.382    5762.0472   -64847.335    154.06838 
   19000    3870.0838   -70218.194    6633.1912   -63585.003    759.00777 
   20000    3598.8834   -70377.955    6168.3629   -64209.592    357.34292 
   21000    3501.3866   -70388.093    6001.2568   -64386.836    21.426988 
   22000    3569.7097   -70671.929    6118.3602   -64553.568    198.14192 
   23000    3577.8176       -70234     6132.257   -64101.743    472.65568 
   24000    3390.9253   -70241.958      5811.93   -64430.028    129.14114 
   25000    3637.5115   -70354.872    6234.5702   -64120.302    104.68429 
   26000    3552.6067   -69894.878    6089.0464   -63805.832    999.91675 
   27000    3389.9802   -70095.235    5810.3101   -64284.925    159.67427 
   28000    3266.5759   -70111.373    5598.7994   -64512.573    432.04795 
   29000    3660.8684   -70290.504    6274.6032   -64015.901    490.59798 
   30000    3630.8738   -70281.181    6223.1934   -64057.987   -337.13432 
   31000    3489.9403    -70157.29    5981.6382   -64175.651   -41.624849 
   32000    3659.3539   -70296.756    6272.0074   -64024.749    941.88419 
   33000    3453.7253   -69832.537     5919.567    -63912.97    471.67364 
   34000    3453.8554   -70125.013      5919.79   -64205.223     264.3318 
   35000    3582.0519   -69938.438    6139.5144   -63798.923   -213.62333 
   36000    3489.5069   -70054.733    5980.8954   -64073.837   -167.24382 
   37000    3576.2725    -69997.72    6129.6086   -63868.111   -346.59147 
   38000    3413.7124   -70313.192    5850.9862   -64462.206   -273.58453 
   39000    3516.3554   -70173.143    6026.9128    -64146.23    119.30756 
   40000    3669.8798   -69859.112    6290.0484   -63569.063    61.128511 
   41000    3393.6285   -70113.966    5816.5631   -64297.402   -50.680866 
   42000    3591.8855    -70188.16    6156.3689   -64031.791    565.11607 
   43000    3545.6891   -69819.579    6077.1899   -63742.389    88.259571 
   44000    3666.8105   -69856.732    6284.7877   -63571.944   -243.30553 
   45000    3510.8374   -70151.006    6017.4552   -64133.551   -87.698713 
   46000     3665.309   -70445.618    6282.2142   -64163.404    411.17633 
   47000    3676.9352   -69823.029     6302.141   -63520.888    187.71245 
   48000    3436.7835   -70012.184    5890.5293   -64121.654    194.84895 
   49000    3422.8463   -70187.788    5866.6414   -64321.147    288.35155 
   50000    3601.8761    -70234.81    6173.4924   -64061.318    177.73059 
   51000    3632.6118   -70244.509    6226.1723   -64018.337    536.90265 
   52000    3526.2843   -70114.585    6043.9305   -64070.655     434.0479 
   53000    3623.2281    -69745.81    6210.0889   -63535.721    99.381774 
   54000    3370.9685   -70028.245    5777.7246   -64250.521    396.45063 
   55000    3517.3213   -69958.893    6028.5683   -63930.325    304.50065 
   56000    3565.8034   -69738.029     6111.665   -63626.364    281.64604 
   57000    3510.6354   -69906.514    6017.1089   -63889.405    112.47876 
   58000    3619.5217     -70021.5    6203.7364   -63817.764     94.63296 
   59000    3366.3349   -69786.348    5769.7828   -64016.565   -352.94052 
   60000    3360.6251    -70040.79    5759.9964   -64280.794     330.3418 
   61000     3541.022   -70031.663    6069.1906   -63962.473   -198.57816 
   62000    3554.2171   -69962.053    6091.8066   -63870.247   -79.253513 
   63000    3513.8639   -69952.698    6022.6425   -63930.056     308.4956 
   64000     3442.868   -70165.156    5900.9579   -64264.198    654.90432 
   65000    3416.5249   -69462.646    5855.8068    -63606.84    422.78573 
   66000    3557.1372   -70112.835    6096.8114   -64016.024    431.76307 
   67000    3531.5116   -69895.761    6052.8901   -63842.871    504.74466 
   68000    3423.9274   -69883.256    5868.4944   -64014.762    310.11312 
   69000    3435.7125    -69810.63    5888.6937   -63921.936   -607.44508 
   70000    3476.4726   -69868.788    5958.5551   -63910.233   -133.85765 
   71000    3674.7411   -69697.671    6298.3804   -63399.291   -22.250342 
   72000    3657.9368   -69651.457    6269.5785   -63381.879    198.16388 
   73000    3488.4168    -70060.38     5979.027   -64081.353   -37.686316 
   74000    3443.1821   -69468.077    5901.4963   -63566.581   -915.61541 
   75000    3460.5643   -70156.163    5931.2888   -64224.874    -100.5776 
   76000    3443.9915   -69790.448    5902.8835   -63887.564    502.73414 
   77000     3591.195   -69975.281    6155.1854   -63820.095    248.83369 
   78000    3788.5257   -69776.994    6493.4033   -63283.591   -279.03954 
   79000    3468.8072    -69956.52    5945.4168   -64011.103     592.8366 
   80000    3309.0282   -69802.566    5671.5612   -64131.005   -198.93576 
   81000    3416.1543   -69688.038    5855.1716   -63832.866    569.44334 
   82000    3617.4089   -69927.403    6200.1151   -63727.288   -177.78136 
   83000    3471.6724   -69996.282    5950.3277   -64045.955    689.89498 
   84000    3734.4228   -69695.053    6400.6729    -63294.38   -412.54086 
   85000    3502.7134   -69745.127    6003.5309   -63741.596    3.1398246 
   86000    3330.5449    -69703.02      5708.44    -63994.58    354.47508 
   87000    3546.6014   -69516.714    6078.7535    -63437.96    163.22001 
   88000    3334.5869   -69731.713    5715.3678   -64016.345   -459.26531 
   89000    3507.9501   -69937.709    6012.5065   -63925.203     231.5105 
   90000     3500.357   -69799.003    5999.4921   -63799.511    820.02139 
   91000    3258.3545   -70010.705    5584.7081   -64425.997    485.10435 
   92000    3573.5082   -69858.163    6124.8708   -63733.292   -126.57711 
   93000    3381.9502   -69905.537     5796.547    -64108.99   -15.572699 
   94000    3417.1277   -69711.645      5856.84   -63854.805    408.58848 
   95000    3294.9589   -69740.525    5647.4468   -64093.078     290.0417 
   96000    3392.7152   -69879.503    5814.9977   -64064.505   -15.806512 
   97000    3402.7064   -70163.511    5832.1223   -64331.389    441.38435 
   98000    3443.1501   -70039.739    5901.4414   -64138.298    734.65021 
   99000    3512.4056   -69749.667    6020.1431   -63729.524   -269.71144 
  100000    3325.7323   -70207.486    5700.1913   -64507.295    441.90216 
  101000    3988.5034   -69789.809    6836.1583   -62953.651    453.37747 
  102000     3635.477   -69702.806    6231.0831   -63471.723   -398.07033 
  103000    3448.4117   -69889.336    5910.4597   -63978.876    236.26091 
  104000    3433.2385   -69909.186    5884.4534   -64024.733     204.7935 
  105000    3418.2306   -70304.421    5858.7302   -64445.691    228.67921 
  106000    3629.1367   -69815.457    6220.2161   -63595.241    225.16377 
  107000    3571.9173   -69340.541    6122.1441   -63218.397    411.34546 
  108000    3642.2699   -69537.449    6242.7259   -63294.723    678.31379 
  109000    3660.8965    -69368.26    6274.6513   -63093.609   -48.059781 
  110000    3835.7172   -69712.723     6574.288   -63138.435    377.16715 
  111000    3538.3756   -69677.439    6064.6547   -63612.785    145.35678 
  112000    3570.5224   -69544.835    6119.7533   -63425.081   -56.673733 
  113000     3467.471   -69478.271    5943.1266   -63535.144    208.27007 
  114000    3463.4242   -69518.566    5936.1906   -63582.375   -309.38653 
  115000    3468.5991   -69741.266    5945.0602   -63796.206    191.26063 
  116000    3556.7997   -69425.216    6096.2329   -63328.983    278.04021 
  117000    3678.6651   -69267.333    6305.1061   -62962.227   -480.50562 
  118000    3431.0296   -69854.853    5880.6673   -63974.185    441.48675 
  119000    3733.5264   -69381.049    6399.1365   -62981.912    175.82715 
  120000    3286.6718   -69153.674    5633.2431   -63520.431   -471.90014 
  121000    3541.6757   -69565.207    6070.3109   -63494.896    153.22489 
  122000    3669.6403   -69887.217    6289.6379   -63597.579   -1.9349204 
  123000    3552.8866   -69345.166     6089.526    -63255.64   -220.33366 
  124000    3457.3117   -69310.818    5925.7139   -63385.104    280.00026 
  125000    3542.9421   -69501.044    6072.4814   -63428.563    366.27184 
  126000    3630.5321   -69191.699    6222.6078   -62969.092    282.89199 
  127000    3584.0391   -69398.471    6142.9204   -63255.551     262.1828 
  128000    3545.3344   -69256.173    6076.5819   -63179.591    281.38987 
  129000    3580.6039    -69196.37    6137.0326   -63059.338   -323.16333 
  130000    3482.4968   -69620.577    5968.8803   -63651.697   -683.72014 
  131000    3506.1068   -69270.688     6009.347   -63261.341    234.12264 
  132000    3471.4549   -69260.813    5949.9549   -63310.858    79.506503 
  133000     3438.257   -69274.774    5893.0548   -63381.719   -427.42648 
  134000    3513.0302   -69469.526    6021.2135   -63448.313   -392.94888 
  135000    3549.3628   -69239.827    6083.4863   -63156.341   -92.043198 
  136000    3781.7348   -69295.722    6481.7641   -62813.958    232.85384 
  137000    3503.8821   -69473.055    6005.5341   -63467.521    239.25272 
  138000    3426.5162   -69413.895    5872.9315   -63540.963   -490.02092 
  139000    3673.5594    -69208.14     6296.355   -62911.785    563.95731 
  140000    3525.7059   -69386.896    6042.9392   -63343.957     91.01299 
  141000    3734.7015   -69130.594    6401.1505   -62729.443    767.90218 
  142000    3549.9618   -69697.213    6084.5131     -63612.7    394.42483 
  143000    3557.1798   -69122.963    6096.8844   -63026.079    192.83375 
  144000    3541.2613   -69395.637    6069.6007   -63326.036   -157.63493 
  145000    3410.0077   -69364.634    5844.6365   -63519.997   -275.57795 
  146000    3413.1462   -69254.502    5850.0157   -63404.486    590.80756 
  147000    3398.1628   -69446.654    5824.3347    -63622.32    -341.3399 
  148000    3505.2302   -69264.539    6007.8446   -63256.694    30.204798 
  149000    3549.4269   -69324.063    6083.5962   -63240.466   -724.99565 
  150000    3705.6281   -69231.727    6351.3198   -62880.408    584.15476 
  151000    3397.9904   -69160.765    5824.0392   -63336.725   -107.76538 
  152000    3562.9965   -69019.519    6106.8541   -62912.665   -21.533428 
  153000    3589.6396   -69178.815    6152.5194   -63026.295   -319.76325 
  154000    3499.3113   -69205.259    5997.6997   -63207.559   -150.97739 
  155000    3769.2007    -69241.18    6460.2811   -62780.898    518.34532 
  156000    3469.7499   -69236.109    5947.0326   -63289.077    368.17431 
  157000    3710.2811   -69059.429    6359.2948   -62700.134    -121.0143 
  158000     3343.727   -69225.116    5731.0336   -63494.082    398.50435 
  159000    3516.1044   -69527.706    6026.4827   -63501.223   -150.21328 
  160000    3430.2327   -69055.105    5879.3015   -63175.804    102.82346 
  161000    3510.7759   -69121.497    6017.3497   -63104.147    553.35649 
  162000    3452.7725   -69463.422    5917.9338   -63545.488   -219.35385 
  163000    3650.7323   -69145.783    6257.2303   -62888.553    150.00464 
  164000    3503.4483    -69256.11    6004.7905    -63251.32    696.66374 
  165000    3451.1493    -69133.18    5915.1518   -63218.028    283.46021 
  166000    3298.8541   -69436.038     5654.123   -63781.915   -289.37426 
  167000    3518.3405    -69606.28    6030.3152   -63575.965    285.24545 
  168000    3459.7071   -69245.568    5929.8195   -63315.749   -333.34325 
  169000    3403.0988   -69191.225    5832.7948    -63358.43    223.56028 
  170000    3659.2103   -69219.975    6271.7612   -62948.214   -216.10857 
  171000     3625.494   -69182.053    6213.9727    -62968.08   -486.63464 
  172000    3469.0178   -68960.266    5945.7778   -63014.488   -448.29529 
  173000    3452.1251   -69242.524    5916.8242     -63325.7   -214.61625 
  174000    3647.9503   -69255.268     6252.462   -63002.806    103.65758 
  175000    3361.0514   -69452.957    5760.7271   -63692.229   -44.038624 
  176000    3700.8318   -69344.757    6343.0991   -63001.658   -440.98687 
  177000    3280.4233   -68926.577    5622.5333   -63304.044    477.76626 
  178000    3410.2687    -68837.57    5845.0839   -62992.486    108.29098 
  179000    3434.7734   -69353.808     5887.084   -63466.724   -392.74293 
  180000    3529.8486   -69335.245    6050.0397   -63285.206    69.035063 
  181000    3481.3648   -69117.202    5966.9401   -63150.262    378.16897 
  182000    3525.4096    -69135.97    6042.4315   -63093.539   -264.79634 
  183000    3583.8186   -69057.032    6142.5424   -62914.489    72.934441 
  184000    3632.6236   -68903.481    6226.1925   -62677.289   -329.82673 
  185000     3376.683   -69010.025    5787.5191   -63222.506   -752.73927 
  186000    3642.7915    -68601.04      6243.62    -62357.42    688.74069 
  187000    3639.1246   -69052.199    6237.3349   -62814.864    435.13378 
  188000    3422.6239   -68742.728    5866.2602   -62876.468    79.845717 
  189000    3495.0995   -68983.638     5990.481   -62993.157    165.60605 
  190000     3802.422   -68903.464    6517.2212   -62386.243   -894.51474 
  191000    3376.1992   -69307.467    5786.6899   -63520.777    28.489325 
  192000    3422.7469   -68645.318    5866.4711   -62778.847   -286.03285 
  193000    3316.1713   -69096.818    5683.8041   -63413.014    767.00083 
  194000    3565.9865   -68861.746    6111.9788   -62749.768   -513.04213 
  195000    3633.1311   -69677.277    6227.0624   -63450.215    285.37093 
  196000     3515.303   -68791.804     6025.109   -62766.695   -103.10037 
  197000     3668.409   -68874.167    6287.5276    -62586.64    254.41641 
  198000    3721.9289   -69227.672    6379.2588   -62848.413   -171.17099 
  199000     3477.452   -69091.267    5960.2336   -63131.033   -688.24377 
  200000    3443.2118   -68775.621    5901.5471   -62874.074   -153.59576 
  201000    3664.3897    -69099.62    6280.6386   -62818.982    543.80816 
  202000    3447.7346   -69190.301     5909.299   -63281.002    322.01673 
  203000    3455.7755   -68769.938    5923.0809   -62846.857   -39.662018 
  204000    3460.9925   -69015.982    5932.0227   -63083.959    187.81724 
  205000    3439.3623   -68679.468    5894.9493   -62784.519    419.87188 
  206000    3629.7876   -68804.801    6221.3318   -62583.469    69.745107 
  207000     3422.451   -69021.766    5865.9639   -63155.802   -311.32915 
  208000    3330.9542   -68891.642    5709.1415   -63182.501    443.35858 
  209000    3779.7463    -69036.93    6478.3558   -62558.574     221.4005 
  210000    3550.9113   -69126.173    6086.1405   -63040.033   -330.98154 
  211000    3488.8281   -68958.099     5979.732   -62978.367   -817.92715 
  212000    3385.7507   -68788.829    5803.0608   -62985.768     640.0389 
  213000    3578.5546   -68795.005    6133.5201   -62661.485   -260.75124 
  214000     3498.509   -68812.072    5996.3247   -62815.747   -270.81093 
  215000    3302.6625   -68763.554    5660.6506   -63102.903     842.8871 
  216000    3556.6409   -68693.724    6095.9608   -62597.763    121.58181 
  217000    3562.6134   -68469.429    6106.1974   -62363.232    163.90654 
  218000    3445.7447   -68264.602    5905.8885   -62358.714    250.80251 
  219000    3373.3896   -68679.182    5781.8744   -62897.307    37.561502 
  220000    3561.2368   -68891.038    6103.8379     -62787.2   -103.73997 
  221000    3481.8884   -68630.867    5967.8376   -62663.029    662.89454 
  222000    3598.1479   -68648.735    6167.1024   -62481.633   -487.98272 
  223000    3573.1788   -68439.894    6124.3062   -62315.587    174.05626 
  224000       3538.6   -68742.912    6065.0393   -62677.872   -281.38426 
  225000    3369.6597    -68659.34    5775.4814   -62883.858   -114.19737 
  226000    3633.0558   -68662.681    6226.9332   -62435.748   -389.32528 
  227000    3514.4392   -68471.504    6023.6285   -62447.875    43.708751 
  228000    3622.5057   -68293.544    6208.8508   -62084.693   -170.13855 
  229000    3389.6177   -68676.913    5809.6888   -62867.224   -290.51515 
  230000    3524.7205   -68443.298    6041.2502   -62402.048    85.817492 
  231000    3487.9521   -68523.408    5978.2306   -62545.177   -733.14483 
  232000    3490.3159   -68434.597    5982.2821   -62452.315    164.43963 
  233000    3556.3495   -68446.992    6095.4613    -62351.53   -238.53712 
  234000    3517.2952   -68457.342    6028.5236   -62428.819    178.61851 
  235000    3410.2924   -68414.598    5845.1244   -62569.473   -262.72754 
  236000    3372.8533   -68490.543    5780.9552   -62709.587   -311.08125 
  237000    3369.9028   -68507.878    5775.8981    -62731.98   -4.4261148 
  238000    3282.9136   -68249.187    5626.8016   -62622.386    295.70236 
  239000    3386.1531   -68310.184    5803.7505   -62506.434    59.192244 
  240000    3500.5049   -68413.381    5999.7456   -62413.636    154.06596 
  241000    3657.3836   -68713.404    6268.6303   -62444.774    82.646657 
  242000      3256.83   -68639.483    5582.0952   -63057.388    246.05648 
  243000    3495.0625   -68416.686    5990.4174   -62426.269    21.468591 
  244000     3519.469   -68543.939    6032.2495   -62511.689   -622.63584 
  245000    3729.4178   -68012.106    6392.0945   -61620.011   -193.54622 
  246000    3438.2789    -68517.82    5893.0924   -62624.728    -115.3235 
  247000    3581.8704   -68308.518    6139.2033   -62169.315    505.36528 
  248000    3525.1767   -68625.114    6042.0323   -62583.081   -454.69083 
  249000    3571.5884   -68850.971    6121.5803    -62729.39    86.972408 
  250000    3760.9981   -68357.959    6446.2221   -61911.736   -113.31727 
  251000    3502.5327   -68139.277    6003.2212   -62136.056   -591.68073 
  252000     3443.281   -68381.702    5901.6657   -62480.037    107.36153 
  253000     3510.985   -68282.657    6017.7082   -62264.949    23.694896 
  254000    3433.6231    -68220.96    5885.1125   -62335.848   -134.60571 
  255000    3424.4193   -68240.571    5869.3375   -62371.233    339.60828 
  256000    3396.1176   -68172.283    5820.8294   -62351.454     97.06761 
  257000    3542.7132   -68342.486    6072.0891   -62270.397    619.07796 
  258000    3519.0981   -68425.311    6031.6138   -62393.697    663.74076 
  259000    3496.5051   -68007.599    5992.8901   -62014.709   -248.85214 
  260000    3578.4488   -68453.718    6133.3388   -62320.379    604.87626 
  261000     3484.728    -68186.66    5972.7045   -62213.955    92.458547 
  262000    3497.1426   -68278.481    5993.9827   -62284.498    480.35159 
  263000    3099.7016   -68022.855    5312.7825   -62710.073    9.2812475 
  264000    3695.5027   -68276.047    6333.9652   -61942.082   -398.34317 
  265000     3573.181     -68360.4    6124.3099    -62236.09    54.814923 
  266000    3678.1086   -68329.649    6304.1523   -62025.497    683.24861 
  267000    3583.1585   -68224.299    6141.4111   -62082.888    17.012969 
  268000    3473.3814   -68106.129    5953.2569   -62152.872   -458.80348 
  269000    3724.7156   -68211.652     6384.035   -61827.617   -30.549232 
  270000    3585.1717   -68680.076    6144.8617   -62535.215   -391.24558 
  271000    3663.4509   -68253.887    6279.0295   -61974.858    411.10628 
  272000    3482.6439   -67635.733    5969.1325     -61666.6   -259.29217 
  273000    3721.4804   -68442.535      6378.49   -62064.045    164.08302 
  274000    3384.5015   -68102.094    5800.9198   -62301.174    408.99482 
  275000    3455.5822   -68281.371    5922.7497   -62358.622    28.015249 
  276000    3545.1025   -68011.725    6076.1844   -61935.541   -158.44403 
  277000    3568.3933   -68468.022     6116.104   -62351.918    808.35556 
  278000    3515.9978   -68460.516    6026.2999   -62434.216   -208.55382 
  279000    3440.3402   -68301.538    5896.6254   -62404.912    256.24691 
  280000    3658.9834   -67996.401    6271.3724   -61725.028    76.290279 
  281000    3393.5656   -68194.901    5816.4553   -62378.446   -383.75061 
  282000    3579.7555   -68398.728    6135.5785    -62263.15    1043.3337 
  283000    3668.4416   -68436.437    6287.5833   -62148.854    434.35901 
  284000    3531.6084   -68143.839    6053.0559   -62090.783     288.1511 
  285000    3473.4782   -68267.262    5953.4227    -62313.84   -345.36042 
  286000    3523.2378   -68435.785     6038.709   -62397.076   -340.07859 
  287000    3403.0559   -67995.697    5832.7214   -62162.976   -685.48644 
  288000    3515.7524   -68506.174    6025.8793   -62480.295    505.61268 
  289000    3277.1726   -68244.253    5616.9617   -62627.292    630.06535 
  290000    3799.8749   -68248.878    6512.8555   -61736.023     318.4828 
  291000    3266.1466   -68347.287    5598.0636   -62749.223   -251.58748 
  292000    3540.5443   -68501.928    6068.3717   -62433.556   -285.03237 
  293000    3560.5081   -68603.542     6102.589   -62500.953   -261.18928 
  294000    3484.4501   -68405.041    5972.2282   -62432.813    179.50416 
  295000    3627.9821   -68113.871    6218.2372   -61895.633    55.438579 
  296000     3508.341   -68406.731    6013.1764   -62393.555    250.16274 
  297000    3483.9427    -68494.38    5971.3585   -62523.021   -30.202285 
  298000    3748.8582   -68220.485    6425.4146    -61795.07    23.390882 
  299000     3243.182   -68451.697     5558.703   -62892.994   -280.69457 
  300000    3402.2358   -68450.428    5831.3157   -62619.113    777.15773 
  301000    3682.4891   -68236.762    6311.6603   -61925.102    600.58447 
  302000    3581.0285   -68657.114    6137.7604   -62519.354    877.41784 
  303000    3432.6453   -68278.049    5883.4367   -62394.613    83.282433 
  304000    3547.6497   -68139.632    6080.5501   -62059.082     688.3416 
  305000    3673.3207   -68388.622     6295.946   -62092.676   -230.06382 
  306000       3437.3   -68542.196    5891.4147   -62650.781    190.89473 
  307000    3249.2137   -68547.322    5569.0412   -62978.281   -407.16019 
  308000    3588.7541   -68287.247    6151.0017   -62136.246    478.93577 
  309000    3694.0724   -68628.951    6331.5138   -62297.437   -485.58402 
  310000    3248.8568   -68666.688    5568.4293   -63098.259    24.241321 
  311000    3608.6366   -68369.791    6185.0797   -62184.711    606.52884 
  312000    3516.9888   -67827.044    6027.9984   -61799.045   -390.41163 
  313000    3599.7966   -68442.299    6169.9281   -62272.371    33.369056 
  314000    3392.1355   -68193.606    5814.0042   -62379.601   -238.06989 
  315000    3417.1285   -68500.986    5856.8413   -62644.144    -208.6871 
  316000    3724.6665    -67998.91     6383.951   -61614.959     815.9615 
  317000    3354.9943   -68394.785    5750.3454   -62644.439    341.21579 
  318000     3563.536    -68042.21    6107.7787   -61934.432    409.04472 
  319000    3460.2655   -68273.631    5930.7766   -62342.854   -1026.7921 
  320000    3535.5819   -68328.551    6059.8664   -62268.685   -266.38128 
  321000    3232.4886   -68350.516    5540.3749   -62810.141   -478.07609 
  322000    3546.6594   -68324.172    6078.8529   -62245.319    393.18537 
  323000    3402.2664   -68032.873    5831.3682   -62201.505   -268.99649 
  324000    3621.4647   -68250.332    6207.0666   -62043.265    221.94698 
  325000    3455.8988   -68159.421    5923.2923   -62236.129    180.34957 
  326000    3300.8754   -68158.663    5657.5876   -62501.075   -854.84657 
  327000     3469.918   -68505.269    5947.3208   -62557.948    153.82281 
  328000    3289.3177   -68093.365     5637.778   -62455.587   -279.14851 
  329000    3348.4678   -68359.902    5739.1592   -62620.743    -425.1055 
  330000    3603.8314   -67826.841    6176.8437   -61649.998    300.46202 
  331000    3519.1478   -68258.699    6031.6989       -62227   -284.44629 
  332000    3580.8292   -68463.312    6137.4188   -62325.893    517.87855 
  333000    3683.4226   -68257.747    6313.2603   -61944.487   -227.48112 
  334000    3576.6533   -68473.834    6130.2613   -62343.573   -224.95513 
  335000    3333.5068   -67958.048    5713.5165   -62244.531    409.59753 
  336000    3440.5811   -68127.189    5897.0382   -62230.151    435.03285 
  337000    3505.0317   -68224.545    6007.5044   -62217.041    228.62469 
  338000    3565.1977    -68106.46    6110.6269   -61995.833     860.7568 
  339000     3617.617   -68184.762    6200.4718    -61984.29   -131.88892 
  340000    3341.6798   -68073.506    5727.5249   -62345.981   -234.99921 
  341000    3369.7142   -68096.961    5775.5747   -62321.386    662.26538 
  342000    3565.2109   -68195.954    6110.6495   -62085.305    56.525781 
  343000    3371.5208   -68189.407    5778.6713   -62410.736   -356.37135 
  344000    3493.0024   -68244.199    5986.8865   -62257.313    -513.4683 
  345000    3597.5342   -68477.308    6166.0504   -62311.258    465.92991 
  346000    3712.4336   -67989.882    6362.9841   -61626.898   -241.68329 
  347000    3504.1303   -68407.635    6005.9595   -62401.676    486.15187 
  348000    3684.2682   -68410.222    6314.7097   -62095.512    242.06191 
  349000    3590.4484   -68267.608    6153.9056   -62113.703   -93.552492 
  350000    3512.2122       -68057    6019.8115   -62037.188   -279.90798 
  351000    3651.5205   -68162.714    6258.5811   -61904.133   -317.07308 
  352000    3608.0443   -68348.677    6184.0645   -62164.613    58.341263 
  353000    3406.7094   -68170.527    5838.9833   -62331.544    1049.1602 
  354000    3629.3796   -67838.887    6220.6325   -61618.254   -579.05128 
  355000    3521.0759   -67853.342    6035.0036   -61818.338    91.001495 
  356000    3225.5531   -68194.915    5528.4877   -62666.427    482.23161 
  357000    3576.7729   -68404.767    6130.4663     -62274.3    74.921561 
  358000    3706.8461   -67930.191    6353.4074   -61576.784   -695.14923 
  359000    3580.9977   -68194.427    6137.7075   -62056.719      281.414 
  360000    3521.9983   -67881.844    6036.5846   -61845.259    606.85093 
  361000    3320.5052   -67835.591    5691.2323   -62144.359   -278.78698 
  362000    3621.2877   -68106.769    6206.7633   -61900.006   -50.346098 
  363000    3196.6168   -68237.682    5478.8918    -62758.79    634.04642 
  364000    3483.3566   -68098.584     5970.354    -62128.23   -345.32362 
  365000    3563.0038   -68143.263    6106.8666   -62036.396     11.22092 
  366000    3608.1143   -67919.316    6184.1844   -61735.132   -305.28323 
  367000    3402.1541   -68456.013    5831.1757   -62624.837    -275.9111 
  368000    3474.5378   -68129.662    5955.2388   -62174.424   -91.288217 
  369000    3337.6726    -67893.25    5720.6567   -62172.593    50.681174 
  370000    3443.8345   -67739.374    5902.6144    -61836.76   -225.31948 
  371000    3457.2755   -68320.105    5925.6519   -62394.454    473.11562 
  372000    3476.9952   -68018.642    5959.4508   -62059.191    400.44451 
  373000      3343.93   -67836.785    5731.3815   -62105.404    -281.5313 
  374000     3372.181    -68414.66    5779.8029   -62634.857    30.508223 
  375000    3508.9683   -67960.118    6014.2515   -61945.867   -473.42608 
  376000    3348.0737   -68193.142    5738.4838   -62454.659   -211.21639 
  377000    3584.3351   -67858.155    6143.4277   -61714.727   -183.51097 
  378000    3639.3665   -68281.186    6237.7496   -62043.436   -95.672239 
  379000     3476.844   -68070.873    5959.1917   -62111.681   -388.87198 
  380000    3394.9653   -68115.305    5818.8544   -62296.451   -214.86613 
  381000    3519.1289   -68391.847    6031.6665   -62360.181   -71.666204 
  382000    3450.6482   -68144.145    5914.2929   -62229.853   -205.47062 
  383000    3563.7814   -67757.724    6108.1993   -61649.524   -160.15059 
  384000    3626.4412    -67714.91    6215.5961   -61499.314    219.50633 
  385000    3482.8677   -68054.806     5969.516    -62085.29    536.09737 
  386000    3709.6222   -67996.636    6358.1655    -61638.47   -64.928913 
  387000    3384.4384   -68116.762    5800.8115   -62315.951    85.678446 
  388000    3618.7365   -68118.854    6202.3905   -61916.464    246.02669 
  389000    3515.1475   -68020.114    6024.8425   -61995.271    -465.8733 
  390000    3604.2685   -68210.526    6177.5928   -62032.934    248.51013 
  391000    3376.6624   -68216.208    5787.4838   -62428.725   -334.31683 
  392000     3653.029   -68233.015    6261.1668   -61971.848    811.58704 
  393000    3233.5682   -67832.062    5542.2252   -62289.836   -9.5532139 
  394000    3484.6953   -68137.931    5972.6485   -62165.282    124.20828 
  395000    3398.9156    -67847.37     5825.625   -62021.745   -305.72688 
  396000     3411.754   -68073.455    5847.6296   -62225.826    62.712862 
  397000    3390.7121   -68022.169    5811.5645   -62210.604    150.06664 
  398000      3704.35   -68263.109    6349.1291    -61913.98    584.75339 
  399000    3388.7987    -67577.57    5808.2849   -61769.286   -250.89177 
  400000    3430.2849   -68063.423     5879.391   -62184.032    28.461688 
  401000    3367.2432   -67741.889    5771.3397   -61970.549   -497.75745 
  402000    3354.0123   -67856.297    5748.6623   -62107.635    183.70396 
  403000    3402.2101   -68172.564    5831.2716   -62341.292   -283.30282 
  404000    3615.1021   -67913.305    6196.1612   -61717.144   -38.466709 
  405000    3482.5485   -68193.715     5968.969   -62224.746     241.8909 
  406000    3744.9088   -67892.842    6418.6455   -61474.196   -561.98228 
  407000    3374.0817   -68298.759    5783.0606   -62515.699    478.20425 
  408000    3347.7038   -68023.245    5737.8498   -62285.395   -368.07771 
  409000    3492.4088    -68169.92    5985.8692   -62184.051   -359.88012 
  410000    3540.4667   -68147.402    6068.2388   -62079.163    154.52208 
  411000    3442.3925   -67923.748     5900.143   -62023.605   -173.30395 
  412000    3467.7944   -67810.267    5943.6808   -61866.586    91.660358 
  413000    3591.5838   -68118.953    6155.8517   -61963.101     80.77425 
  414000    3469.2601   -68180.956     5946.193   -62234.763    1110.0756 
  415000    3505.4086   -67860.479    6008.1504   -61852.328     59.07739 
  416000    3493.2555   -68355.942    5987.3203   -62368.621   -100.59621 
  417000    3438.1024   -67959.587    5892.7899   -62066.797   -452.80641 
  418000    3329.9827   -68351.205    5707.4764   -62643.729     338.8725 
  419000    3569.4319   -68296.773    6117.8841   -62178.889     376.1298 
  420000    3329.8483   -68246.836     5707.246    -62539.59   -480.72714 
  421000     3367.479   -68442.188    5771.7437   -62670.444   -294.66145 
  422000    3370.6234   -67854.952    5777.1332   -62077.818   -1070.4764 
  423000    3617.3911    -68144.72    6200.0845   -61944.635   -583.07791 
  424000    3277.3619   -67956.541    5617.2861   -62339.255   -448.53141 
  425000    3598.1046   -68139.818    6167.0281    -61972.79    144.24829 
  426000    3710.5051   -67895.815    6359.6788   -61536.136    355.80779 
  427000    3429.7727   -67806.098     5878.513   -61927.585   -692.66009 
  428000    3319.2939   -68030.252    5689.1562   -62341.095    415.95644 
  429000     3351.374   -68159.428    5744.1403   -62415.287   -348.24378 
  430000    3337.8857   -68164.778    5721.0218   -62443.756   -245.67363 
  431000    3478.0572   -67816.709    5961.2711   -61855.438    404.95774 
  432000    3596.7223   -68336.956    6164.6589   -62172.297   -54.864053 
  433000    3386.2397   -68340.378    5803.8989   -62536.479    310.51982 
  434000    3537.1977   -68057.862    6062.6358   -61995.226   -539.71928 
  435000    3576.2153   -68111.461    6129.5107   -61981.951    848.95652 
  436000    3449.0758   -67809.284    5911.5979   -61897.686   -23.780703 
  437000    3649.7663   -68132.998    6255.5746   -61877.424   -432.86047 
  438000    3378.9584   -68279.062    5791.4191   -62487.642    619.00798 
  439000    3708.8903   -67989.771    6356.9111    -61632.86   -2.9935683 
  440000    3515.6124   -67961.284    6025.6393   -61935.644    464.04819 
  441000     3523.137   -67949.365    6038.5362   -61910.829    -312.1251 
  442000    3470.2339   -68267.897    5947.8622   -62320.035   -616.23774 
  443000    3721.7916   -67835.976    6379.0234   -61456.952   -485.91009 
  444000      3595.57   -68043.801     6162.684   -61881.117    631.46552 
  445000    3442.7761   -67423.931    5900.8005   -61523.131    5.8570234 
  446000    3606.4425   -68073.028     6181.319   -61891.709    12.968545 
  447000    3466.7226   -68074.213    5941.8439   -62132.369    312.43866 
  448000    3424.4935   -67582.313    5869.4646   -61712.848    1072.3104 
  449000    3464.2848   -68158.754    5937.6656   -62221.088     95.18156 
  450000     3172.386   -68260.519     5437.361   -62823.158    739.88565 
  451000    3670.4685   -68080.212    6291.0574   -61789.154   -284.77803 
  452000    3359.5761   -67990.796    5758.1984   -62232.598    -251.9053 
  453000    3502.2428   -67976.623    6002.7243   -61973.899    777.75851 
  454000    3480.9325    -67928.71    5966.1992   -61962.511   -733.93001 
  455000    3469.1597   -67942.201    5946.0211   -61996.179   -17.142478 
  456000    3751.5882   -67950.676    6430.0937   -61520.583   -367.51371 
  457000    3440.2236   -68045.951    5896.4255   -62149.525   -223.59752 
  458000    3733.2208   -67801.893    6398.6128    -61403.28    135.28734 
  459000    3493.6613   -68134.942    5988.0159   -62146.927    69.418312 
  460000     3636.394   -67786.679    6232.6549   -61554.025    180.16708 
  461000    3540.6117    -67798.97    6068.4872   -61730.482   -114.80815 
  462000    3452.8938   -68046.294    5918.1418   -62128.153     415.0248 
  463000    3578.8762   -67870.718    6134.0713   -61736.647    676.87934 
  464000    3543.6512   -67902.858    6073.6969   -61829.161      1659.44 
  465000    3507.2159   -67788.221    6011.2481   -61776.973   -73.716873 
  466000    3365.8384   -67734.505    5768.9319   -61965.573       73.226 
  467000    3445.1951    -68198.16    5904.9465   -62293.213    -829.2133 
  468000    3578.6467   -67916.076     6133.678   -61782.398    473.27312 
  469000    3407.9948   -67707.195    5841.1865   -61866.008    548.22329 
  470000    3370.2896   -67847.753     5776.561   -62071.192    576.99122 
  471000    3448.7458   -67794.388    5911.0324   -61883.355    215.35563 
  472000    3452.5116   -68152.556    5917.4867   -62235.069   -51.644081 
  473000    3451.5132   -67675.348    5915.7756   -61759.572    636.32742 
  474000    3407.1801   -67384.953    5839.7901   -61545.163    9.6660935 
  475000     3431.115   -67917.143    5880.8137   -62036.329   -140.08722 
  476000    3404.0934   -67184.329    5834.4995   -61349.829   -283.05695 
  477000    3332.5102   -67983.939    5711.8085   -62272.131    399.80511 
  478000    3550.8156   -67407.225    6085.9764   -61321.248   -17.327849 
  479000    3270.0466   -67382.567    5604.7479   -61777.819   -624.49962 
  480000    3494.8833   -67460.937    5990.1104   -61470.827    345.07212 
  481000    3453.5173   -68126.949    5919.2104   -62207.739    374.33187 
  482000     3553.039   -67421.836    6089.7872   -61332.049   -304.67066 
  483000    3369.0266   -67547.372    5774.3964   -61772.975   -49.141973 
  484000    3305.7386    -67358.74    5665.9229   -61692.817     127.9546 
  485000    3475.4134   -67676.438    5956.7397   -61719.698    118.78844 
  486000    3466.4145   -67408.568    5941.3159   -61467.252   -246.61627 
  487000     3442.436   -67324.737    5900.2176   -61424.519    168.69789 
  488000    3575.5294   -67347.049    6128.3351   -61218.714     272.4815 
  489000    3463.1217   -67434.862    5935.6721   -61499.189   -181.69361 
  490000     3390.203   -67210.393     5810.692   -61399.701   -539.98188 
  491000    3395.3185   -67143.234    5819.4598   -61323.774   -281.91679 
  492000    3455.1013   -67289.078    5921.9254   -61367.152     58.42721 
  493000    3569.9143    -67276.89     6118.711   -61158.179    111.52843 
  494000    3459.6397   -67230.587     5929.704   -61300.883   -359.44875 
  495000    3471.2795    -67289.73    5949.6543   -61340.075    728.02907 
  496000    3410.2274   -67337.415     5845.013   -61492.402   -197.81098 
  497000    3509.2794   -67167.046    6014.7847   -61152.262    190.99877 
  498000    3499.6836    -67013.86    5998.3379   -61015.523    299.46776 
  499000    3536.9443   -67458.208    6062.2016   -61396.006    252.05211 
  500000    3524.3559   -67162.824    6040.6254   -61122.198   -150.57701 
  501000    3445.1287   -67088.855    5904.8326   -61184.023   -44.879754 
  502000    3516.2982   -67026.431    6026.8147   -60999.616   -180.01876 
  503000    3731.6675   -67212.413    6395.9505   -60816.463   -32.164568 
  504000     3581.339   -66542.015    6138.2925   -60403.722    181.95542 
  505000    3527.3199   -66988.705    6045.7057       -60943   -955.78132 
  506000    3443.3686   -66798.645    5901.8159   -60896.829   -175.57646 
  507000    3436.7649   -67115.079    5890.4975   -61224.581    180.19649 
  508000    3605.5766   -66986.382    6179.8349   -60806.547    532.77533 
  509000    3338.2333   -67105.975    5721.6176   -61384.358    373.88354 
  510000    3824.7911   -67361.958     6555.561   -60806.397    660.73193 
  511000    3544.4309   -66797.545    6075.0333   -60722.512    408.40231 
  512000    3410.6268   -66933.161    5845.6976   -61087.464   -813.21224 
  513000    3599.7115   -67277.173    6169.7824   -61107.391   -553.42663 
  514000    3250.9891   -67072.737    5572.0841   -61500.653    51.868293 
  515000    3445.7231   -66922.215    5905.8516   -61016.364     452.0017 
  516000    3554.3239   -67039.164    6091.9895   -60947.174   -161.24111 
  517000    3495.7204    -67002.65    5991.5452   -61011.105    29.846475 
  518000    3588.0286   -67327.929    6149.7583   -61178.171    805.49026 
  519000    3474.7597   -67094.648    5955.6193   -61139.029    70.386763 
  520000    3629.9135   -66955.447    6221.5475     -60733.9    746.24521 
  521000    3413.3398   -67056.549    5850.3476   -61206.201   -74.883896 
  522000    3586.8282   -67078.086    6147.7008   -60930.385    419.97702 
  523000    3408.2705   -66957.151    5841.6591   -61115.492   -59.564952 
  524000    3691.4241   -66698.745    6326.9746   -60371.771    31.825479 
  525000     3326.484   -67064.589    5701.4798    -61363.11   -245.29869 
  526000    3516.6725   -66858.355    6027.4562   -60830.899   -164.25158 
  527000    3678.6239   -66869.972    6305.0355   -60564.937     -129.999 
  528000     3306.634   -66759.632    5667.4576   -61092.175   -61.948832 
  529000    3695.6367   -66612.225    6334.1949    -60278.03     382.5098 
  530000    3565.6461   -67236.477    6111.3955   -61125.082    433.63176 
  531000    3263.5465   -67158.751     5593.607   -61565.144     65.54198 
  532000    3455.2033   -66897.615    5922.1003   -60975.515     601.2864 
  533000    3441.6094   -67319.544    5898.8007   -61420.743    29.641298 
  534000    3226.9706   -66762.202    5530.9171   -61231.285    313.80614 
  535000     3278.809   -66959.047    5619.7664    -61339.28   -687.44052 
  536000     3434.138   -67076.863    5885.9951   -61190.868    472.20162 
  537000     3373.141   -67036.509    5781.4483   -61255.061   -184.71406 
  538000    3518.8024   -67018.301     6031.107   -60987.194    227.62344 
  539000    3516.4319   -66968.318    6027.0439   -60941.274   -926.05093 
  540000    3526.5255   -67021.519     6044.344   -60977.175     288.0832 
  541000     3738.127   -66834.785    6407.0218   -60427.764    367.49684 
  542000    3351.3516   -67118.824    5744.1019   -61374.722    76.967143 
  543000    3479.2526   -66712.302    5963.3199   -60748.982    605.71345 
  544000    3645.5869   -66933.163    6248.4112   -60684.752    532.10943 
  545000     3599.837   -67015.622    6169.9974   -60845.625    534.92504 
  546000    3386.0192   -66657.883     5803.521   -60854.362   -193.55067 
  547000    3370.6828    -66908.03     5777.235   -61130.795   -251.39875 
  548000    3536.5207   -66890.737    6061.4754   -60829.262    -621.9105 
  549000    3675.2461   -67195.527     6299.246   -60896.281    124.03554 
  550000    3386.4869   -67189.163    5804.3227    -61384.84    774.72539 
  551000    3420.2095   -67236.652     5862.122    -61374.53    -61.75063 
  552000    3468.5588   -67229.928    5944.9911   -61284.937   -39.545629 
  553000    3556.8085   -67230.889    6096.2481   -61134.641    411.65114 
  554000    3769.0264   -66663.445    6459.9823   -60203.462    442.26848 
  555000    3541.8091   -66717.346    6070.5395   -60646.806   -115.53321 
  556000    3388.5505   -66974.014    5807.8596   -61166.155    395.13222 
  557000    3523.5046   -66660.726    6039.1663    -60621.56    317.18977 
  558000    3387.2317   -66950.514    5805.5992   -61144.914    -409.9879 
  559000    3556.3902   -67158.991    6095.5311   -61063.459    787.41382 
  560000    3332.7111   -67201.252    5712.1528   -61489.099   -138.35538 
  561000    3401.7511   -67222.502     5830.485   -61392.017    461.58971 
  562000     3527.213   -67095.964    6045.5224   -61050.441   -639.30647 
  563000    3437.3102   -66683.371     5891.432   -60791.939   -5.7441891 
  564000     3387.191   -66988.906    5805.5294   -61183.377    52.625176 
  565000    3682.2916   -67255.208    6311.3219   -60943.886   -291.40614 
  566000    3703.6266   -66623.621    6347.8892   -60275.732   -108.17581 
  567000    3437.4527   -67006.176    5891.6764   -61114.499    -102.9304 
  568000    3700.1951   -67031.264    6342.0078   -60689.256    332.60412 
  569000    3516.4485   -66878.564    6027.0723   -60851.492    86.254203 
  570000    3504.3832   -66938.494    6006.3929   -60932.102    257.26521 
  571000    3449.6087   -66884.172    5912.5113   -60971.661     703.0138 
  572000    3558.5563   -66777.189    6099.2437   -60677.946    514.56773 
  573000    3536.4739   -66917.081    6061.3953   -60855.685   -96.336754 
  574000    3343.7487   -67142.831    5731.0708    -61411.76    155.64587 
  575000    3602.8634    -66946.65    6175.1846   -60771.465     221.1452 
  576000    3673.6536   -66989.865    6296.5166   -60693.349    298.25996 
  577000    3523.0754   -66724.851    6038.4307    -60686.42    307.06582 
  578000     3433.938   -67114.183    5885.6522   -61228.531   -134.88062 
  579000    3498.8066   -66926.415    5996.8347    -60929.58    894.66749 
  580000    3556.7736   -66727.529    6096.1883   -60631.341    782.33609 
  581000    3748.8358   -66900.922    6425.3763   -60475.546   -229.29672 
  582000    3392.2813   -67004.221    5814.2541   -61189.967    445.15216 
  583000     3536.752   -66935.912    6061.8718    -60874.04   -202.42127 
  584000     3347.388   -66848.093    5737.3085   -61110.785    646.95584 
  585000    3547.5887   -66940.426    6080.4456   -60859.981   -328.26253 
  586000    3568.3179    -67698.64    6115.9748   -61582.666   -14.846292 
  587000    3568.0289   -66923.511    6115.4794   -60808.031    390.81886 
  588000    3439.6061   -67023.263    5895.3671   -61127.896   -385.37955 
  589000    3206.3003    -67071.24     5495.489   -61575.751   -185.31601 
  590000    3384.6764   -66797.692    5801.2194   -60996.473    53.447039 
  591000    3378.5962   -66618.899    5790.7982   -60828.101    248.63292 
  592000     3539.893   -67265.745    6067.2555   -61198.489    19.444486 
  593000    3283.0021   -66930.084    5626.9532    -61303.13     476.8988 
  594000    3710.9987   -66764.529    6360.5247   -60404.005    338.65313 
  595000    3553.4656   -66825.758    6090.5185    -60735.24    375.62166 
  596000    3546.9885   -66580.093     6079.417   -60500.676   -325.48078 
  597000    3381.4536   -67032.981    5795.6957   -61237.286   -76.064186 
  598000    3393.9872   -67067.574    5817.1779   -61250.396   -257.15753 
  599000     3340.016   -66850.643    5724.6731   -61125.969    173.82279 
  600000     3349.174   -66965.968    5740.3697   -61225.599    191.90086 
  601000    3593.7149   -66826.849    6159.5044   -60667.344    526.62136 
  602000    3583.7936   -66870.345    6142.4997   -60727.845   -871.56999 
  603000    3424.3224   -66823.068    5869.1715   -60953.897    284.77736 
  604000      3262.75   -66910.322    5592.2418    -61318.08    404.35952 
  605000    3491.5734   -66683.703    5984.4373   -60699.266   -313.09765 
  606000    3631.2997   -67133.776    6223.9234   -60909.852   -765.45498 
  607000    3568.6488   -66888.665    6116.5419   -60772.123     475.6368 
  608000    3402.6738   -66664.536    5832.0664    -60832.47   -788.94175 
  609000    3440.1809   -67010.319    5896.3523   -61113.967    60.513118 
  610000     3370.668   -66672.023    5777.2097   -60894.813   -81.181211 
  611000    3388.9861     -66762.6    5808.6063   -60953.993   -98.383053 
  612000    3446.6428   -67214.223    5907.4279   -61306.795    174.38048 
  613000    3526.1308     -66828.9    6043.6675   -60785.232   -208.02099 
  614000    3507.2228    -66644.43    6011.2598    -60633.17   -294.11922 
  615000    3429.3743    -66684.26    5877.8301   -60806.429    410.87374 
  616000    3672.5747   -66815.026    6294.6674   -60520.359    185.80326 
  617000    3420.4735   -66689.864    5862.5745   -60827.289   -350.48038 
  618000    3423.9318   -66834.413    5868.5019   -60965.911   -681.59187 
  619000    3567.4413   -66385.948    6114.4724   -60271.476   -900.32182 
  620000    3729.6472   -66956.953    6392.4876   -60564.466   -605.27455 
  621000     3790.566   -66674.375    6496.9004   -60177.475    689.13354 
  622000    3492.3158   -66373.678    5985.7098   -60387.968    618.07399 
  623000    3481.7343   -66795.907    5967.5735   -60828.333    304.67323 
  624000    3474.4123   -66833.515    5955.0237   -60878.491   -1010.9846 
  625000    3385.1312   -66954.805     5801.999   -61152.806   -677.49254 
  626000    3401.4442    -67177.86    5829.9589   -61347.902    411.54419 
  627000    3497.8532    -67093.43    5995.2007   -61098.229   -672.03747 
  628000    3712.6386   -67062.027    6363.3355   -60698.692   -170.67684 
  629000    3373.0296   -67116.406    5781.2574   -61335.149    934.84206 
  630000     3193.986   -66839.996    5474.3828   -61365.613   -445.22972 
  631000    3654.8054   -66554.345    6264.2114   -60290.134    493.53176 
  632000    3469.4963   -66685.792    5946.5979   -60739.194   -331.05463 
  633000    3517.4049   -66894.788    6028.7116   -60866.077   -14.432092 
  634000    3485.9145   -66847.323    5974.7381   -60872.585    348.32397 
  635000    3533.7858   -66636.143    6056.7879   -60579.355    489.13718 
  636000    3569.0155   -66603.653    6117.1703   -60486.483    265.45878 
  637000    3332.0353   -66673.081    5710.9944   -60962.086    256.27546 
  638000    3324.0521    -66998.19    5697.3115   -61300.878   -148.33757 
  639000    3607.9836   -67011.974    6183.9605   -60828.014     55.50938 
  640000    3497.2928   -66972.626    5994.2401   -60978.386    494.93699 
  641000    3448.0758   -66932.186     5909.884   -61022.302   -394.35975 
  642000    3470.0467   -67116.045    5947.5414   -61168.504    391.48014 
  643000    3360.6429   -66908.865     5760.027   -61148.838    253.23484 
  644000    3388.8449   -66832.246    5808.3642   -61023.881   -293.06991 
  645000    3596.4686    -67188.98    6164.2241   -61024.756   -607.00924 
  646000      3470.66   -66675.449    5948.5924   -60726.857    318.57108 
  647000    3519.2076   -66439.017    6031.8014   -60407.216    122.72096 
  648000    3378.0695   -67017.439    5789.8956   -61227.544    81.711379 
  649000    3560.8956    -66849.32    6103.2532   -60746.067   -115.28848 
  650000    3534.3364   -66924.662    6057.7317   -60866.931   -78.091989 
  651000    3492.0848   -67086.696    5985.3138   -61101.382    135.02196 
  652000    3637.3748   -66864.975     6234.336   -60630.639   -273.80924 
  653000    3600.7093   -67003.944    6171.4925   -60832.451    39.166614 
  654000    3665.3453   -67088.198    6282.2764   -60805.922    134.60642 
  655000    3619.0508   -66265.088    6202.9292   -60062.159   -374.59436 
  656000    3431.0215   -66437.831    5880.6535   -60557.177   -315.74042 
  657000    3518.8298   -67042.887    6031.1539   -61011.733   -331.21677 
  658000    3675.1837   -66784.123    6299.1391   -60484.984    696.60262 
  659000    3723.6035   -66521.177     6382.129   -60139.048   -181.72483 
  660000    3686.3233   -66982.272    6318.2319    -60664.04   -318.12383 
  661000    3668.9477   -66426.536    6288.4509   -60138.086    85.259774 
  662000    3537.3225   -66657.105    6062.8497   -60594.256    559.38807 
  663000    3747.3894    -66508.08    6422.8972   -60085.183    584.22882 
  664000    3471.7071   -66730.588    5950.3872     -60780.2    -48.51237 
  665000    3496.0461   -66856.601    5992.1034   -60864.497   -176.91389 
  666000    3351.3034   -66793.954    5744.0193   -61049.935    179.02928 
  667000    3495.0427   -66599.685    5990.3835   -60609.302   -258.39862 
  668000     3516.718   -66757.362    6027.5343   -60729.828   -54.609627 
  669000    3382.8918   -66792.874    5798.1607   -60994.714    474.39714 
  670000    3669.2804   -66691.069    6289.0211   -60402.048    1124.0198 
  671000    3512.8975   -66496.127     6020.986   -60475.141    584.20103 
  672000    3329.2229   -66485.427    5706.1742   -60779.253    311.61029 
  673000    3462.1127   -66691.038    5933.9426   -60757.095    188.83235 
  674000    3411.1259   -66986.057    5846.5531   -61139.504    449.56224 
  675000    3519.1184   -66504.568    6031.6485    -60472.92    -75.59123 
  676000    3412.5577   -66701.479    5849.0072   -60852.472     41.11602 
  677000    3408.2565   -67051.901     5841.635   -61210.266    385.74457 
  678000    3617.6396   -66678.961    6200.5105    -60478.45    750.32055 
  679000    3521.4704   -67013.385    6035.6798   -60977.705    200.41104 
  680000    3359.4973   -67143.747    5758.0635   -61385.684    259.95529 
  681000    3644.5017    -66880.82    6246.5512   -60634.269    681.88657 
  682000    3335.7089   -66933.678    5717.2909   -61216.387   -384.27874 
  683000    3772.1854   -67046.693    6465.3967   -60581.297    207.26146 
  684000    3699.9144   -67177.507    6341.5266   -60835.981     568.0043 
  685000    3566.2893   -66869.114    6112.4978   -60756.616   -198.17766 
  686000     3419.521   -66666.528     5860.942   -60805.586   -85.949829 
  687000    3295.6189    -66940.56     5648.578   -61291.982    189.32864 
  688000    3580.3299    -66546.75    6136.5629   -60410.187   -343.59381 
  689000    3609.9789   -67115.017    6187.3803   -60927.636    509.27217 
  690000    3471.4984   -67053.555    5950.0295   -61103.525   -59.813719 
  691000     3560.221   -66802.041    6102.0969   -60699.945   -342.93524 
  692000    3402.5743   -66861.062    5831.8958   -61029.166    543.76939 
  693000    3220.6881   -66633.326    5520.1492   -61113.176    168.31974 
  694000    3637.0527   -66115.926    6233.7838   -59882.142    259.10845 
  695000    3569.1663   -66880.313    6117.4288   -60762.884    -325.2529 
  696000    3464.9126   -66793.203    5938.7417   -60854.461   -343.97281 
  697000    3499.6918   -66761.532    5998.3519   -60763.181   -1125.9721 
  698000    3479.9077   -66668.281    5964.4427   -60703.839    476.89955 
  699000    3559.6662   -67042.537    6101.1461   -60941.391     801.5217 
  700000    3305.9514    -66535.56    5666.2876   -60869.272   -499.28023 
  701000     3466.398   -66575.703    5941.2875   -60634.415    126.05029 
  702000    3405.1772   -67002.093    5836.3571   -61165.736    672.68354 
  703000     3447.835   -66623.942    5909.4712   -60714.471    842.37859 
  704000    3426.0437    -66976.92    5872.1216   -61104.799   -81.807525 
  705000    3567.1342   -66741.034    6113.9459   -60627.088   -1077.6408 
  706000    3462.4572   -66378.168    5934.5332   -60443.635    480.32715 
  707000     3494.924    -66791.02    5990.1801    -60800.84   -183.71368 
  708000    3430.4484   -66528.721    5879.6712    -60649.05    71.804401 
  709000    3511.3558   -66499.429    6018.3437   -60481.085   -578.32455 
  710000    3687.3993   -66806.723    6320.0762   -60486.647    261.10827 
  711000    3561.1373   -66726.124    6103.6675   -60622.456    465.72475 
  712000    3303.6057   -66748.927    5662.2672    -61086.66    245.47705 
  713000    3412.4802   -66792.162    5848.8742   -60943.287    26.357246 
  714000    3357.4052   -67153.095    5754.4777   -61398.617    275.41262 
  715000    3646.9038   -66666.149    6250.6683    -60415.48   -313.38477 
  716000     3618.806   -66406.584    6202.5096   -60204.075    442.43498 
  717000    3716.9517    -66503.49    6370.7279   -60132.762    -153.7327 
  718000     3400.596   -66454.919    5828.5051   -60626.414    -252.4915 
  719000    3657.8184   -66581.357    6269.3755   -60311.981   -503.85449 
  720000    3629.8667   -66792.699    6221.4672   -60571.232   -95.505147 
  721000    3634.7296   -66973.412    6229.8022   -60743.609    605.02967 
  722000    3555.0302   -66519.956    6093.2001   -60426.756   -805.32585 
  723000    3616.6961   -66549.183    6198.8933    -60350.29    206.16304 
  724000    3401.6463   -66889.598    5830.3053   -61059.293    87.992125 
  725000    3488.6886    -66771.54    5979.4928   -60792.047   -219.74496 
  726000    3616.8539    -66558.54    6199.1639   -60359.376    303.62272 
  727000    3511.0947   -66796.053    6017.8961   -60778.157    308.15897 
  728000    3372.6398    -66466.19    5780.5892     -60685.6   -618.34706 
  729000    3428.8926    -66768.04    5877.0046   -60891.035   -1038.1319 
  730000    3394.8143   -66397.563    5818.5956   -60578.967   -230.60108 
  731000    3415.5494   -66533.966    5854.1348   -60679.831    229.35801 
  732000    3560.1504   -66556.541     6101.976   -60454.565    281.67776 
  733000    3498.7139   -66884.891    5996.6758   -60888.216    877.20517 
  734000    3629.1437   -66435.458    6220.2281    -60215.23    17.011278 
  735000    3448.4371   -66489.981    5910.5032   -60579.478    936.91986 
  736000    3532.1631   -66414.804    6054.0067   -60360.797   -512.67455 
  737000    3573.0075   -66470.232    6124.0126    -60346.22   -697.24316 
  738000     3450.581    -66944.12    5914.1778   -61029.942     421.0508 
  739000    3458.2799   -66524.001    5927.3734   -60596.628    694.75225 
  740000     3395.918   -66757.056    5820.4873   -60936.569    291.56327 
  741000    3506.3382   -66279.086    6009.7436   -60269.342   -221.77328 
  742000    3492.7732   -66810.207    5986.4937   -60823.714    459.15869 
  743000    3428.0551   -66891.731    5875.5691   -61016.162   -638.32587 
  744000     3395.667   -66131.381     5820.057   -60311.324   -69.693661 
  745000    3494.4106   -66378.888    5989.3001   -60389.587   -102.10418 
  746000    3613.0279   -66419.788    6192.6062   -60227.182    139.60988 
  747000    3493.0322   -66421.989    5986.9376   -60435.051   -600.08205 
  748000    3396.9648   -66554.458    5822.2814   -60732.177    356.39001 
  749000    3398.3115   -66506.508    5824.5896   -60681.919   -534.89938 
  750000    3518.3667   -66501.928    6030.3601   -60471.568   -579.25731 
  751000    3306.5047   -66668.205     5667.236   -61000.969    35.351157 
  752000    3471.0751   -66426.477     5949.304   -60477.173    859.15368 
  753000    3457.3423   -66481.376    5925.7664    -60555.61   -187.00778 
  754000    3452.7406   -66579.425    5917.8793   -60661.546  -0.95389391 
  755000    3448.9538   -66921.201    5911.3887   -61009.812   -434.74811 
  756000    3611.3641   -67162.618    6189.7546   -60972.864   -87.154988 
  757000    3441.6482   -67036.331    5898.8672   -61137.464   -298.82888 
  758000    3506.5839   -66610.506    6010.1648   -60600.341   -619.93632 
  759000    3506.7013   -66871.355    6010.3661   -60860.989    353.63736 
  760000    3480.1455   -66964.791    5964.8504   -60999.941    394.93337 
  761000    3422.1931   -66681.206    5865.5218   -60815.684   -63.924006 
  762000    3435.4074   -66672.144    5888.1707   -60783.974   -247.35681 
  763000    3604.2693   -66981.813    6177.5942   -60804.219    536.49095 
  764000    3339.8223   -67005.601    5724.3412    -61281.26    229.74671 
  765000    3494.4177   -66864.439    5989.3123   -60875.126    180.64889 
  766000    3189.2008   -66837.273     5466.181   -61371.092   -20.505612 
  767000     3511.957   -66777.657    6019.3742   -60758.283   -654.65012 
  768000    3471.8012   -66912.832    5950.5485   -60962.283    121.78744 
  769000    3471.9408   -66755.506    5950.7877   -60804.719    11.578561 
  770000    3456.0525   -66643.097    5923.5556   -60719.541    443.80006 
  771000    3511.0667   -66936.475    6017.8481   -60918.626    490.78944 
  772000    3539.9598   -66754.492      6067.37   -60687.122   -402.11418 
  773000     3508.231   -66668.765    6012.9879   -60655.777    449.22695 
  774000    3597.6848   -66666.205    6166.3087   -60499.896    658.14029 
  775000    3244.3461   -66215.043    5560.6982   -60654.345    59.906838 
  776000    3483.6561   -66680.055    5970.8674   -60709.187    311.99737 
  777000    3580.4694   -66704.615     6136.802   -60567.813   -200.07017 
  778000    3605.0806   -67279.966    6178.9848   -61100.981   -139.29595 
  779000    3357.1606   -66561.679    5754.0584   -60807.621   -11.921028 
  780000    3502.6165   -67081.503    6003.3649   -61078.139   -468.23174 
  781000    3343.0958   -66750.395    5729.9518   -61020.443   -481.95238 
  782000    3478.0689   -66673.216     5961.291   -60711.925    163.35032 
  783000    3359.7596   -66969.086     5758.513   -61210.572    292.29753 
  784000    3608.2064   -66604.125    6184.3423   -60419.783   -305.14469 
  785000    3371.0297   -66655.138    5777.8296   -60877.308   -606.22557 
  786000    3487.7214   -67135.207    5977.8352   -61157.372     344.1714 
  787000    3570.7389   -66525.352    6120.1242   -60405.228    161.64168 
  788000    3631.6932   -66942.377    6224.5978   -60717.779   -31.966561 
  789000    3422.8998   -66979.478    5866.7331   -61112.745    191.07826 
  790000    3295.3648   -66847.585    5648.1425   -61199.442   -688.71334 
  791000    3483.0687     -66792.5    5969.8605   -60822.639   -524.90452 
  792000    3560.8934   -67030.962    6103.2495   -60927.713    626.23865 
  793000    3406.6105   -66831.227    5838.8138   -60992.413    101.87942 
  794000    3513.5805   -66592.035    6022.1568   -60569.878   -409.65517 
  795000     3411.421   -66269.612    5847.0588   -60422.553    344.13661 
  796000    3432.5839   -66555.116    5883.3313   -60671.784   -672.45683 
  797000    3546.8705   -66604.768    6079.2146   -60525.554    452.35268 
  798000    3422.3123   -66839.253    5865.7261   -60973.527   -188.87914 
  799000    3489.6778   -66627.771    5981.1883   -60646.583    260.88247 
  800000    3536.1803   -66549.269     6060.892   -60488.377   -880.80077 
  801000    3621.1727   -66770.532    6206.5662   -60563.966    342.32002 
  802000    3555.4459   -66975.994    6093.9126   -60882.081    978.21149 
  803000    3486.2678   -66712.864    5975.3437    -60737.52    128.96188 
  804000    3567.9495    -66405.19    6115.3434   -60289.846   -996.83343 
  805000    3265.0127   -66712.886      5596.12   -61116.766   -769.82577 
  806000    3499.7227   -66348.432     5998.405   -60350.027   -514.70192 
  807000    3441.4958   -66620.425    5898.6061   -60721.819    254.20436 
  808000    3420.8071   -66391.301    5863.1462   -60528.155   -817.21222 
  809000    3555.1857   -66328.985    6093.4667   -60235.519    652.42545 
  810000    3539.7506   -66225.033    6067.0115   -60158.022    236.31205 
  811000     3537.911   -66574.371    6063.8583   -60510.513   -154.53228 
  812000    3653.4962   -66552.832    6261.9674   -60290.864    124.01396 
  813000    3646.5931   -66353.568    6250.1357   -60103.433    90.619036 
  814000    3450.9434    -66562.18    5914.7988   -60647.381   -59.873108 
  815000    3462.0676   -66180.228    5933.8654   -60246.363   -79.243549 
  816000    3451.5449   -66160.118    5915.8298   -60244.288   -119.09259 
  817000     3223.571   -66308.649    5525.0904   -60783.559   -573.88468 
  818000    3404.9892   -66391.785     5836.035    -60555.75     573.1603 
  819000     3373.539   -66134.067    5782.1304   -60351.936   -394.28178 
  820000     3405.821   -66247.287    5837.4606   -60409.827    541.05103 
  821000    3344.9825   -66434.311    5733.1855   -60701.125    547.52702 
  822000    3453.3568   -66595.555    5918.9354    -60676.62     643.8102 
  823000    3694.5428    -66121.21    6332.3199    -59788.89    193.88292 
  824000    3553.8483   -66486.693    6091.1744   -60395.519    697.72401 
  825000    3397.9197   -67038.694    5823.9181   -61214.776   -357.92541 
  826000    3538.0444   -66606.094    6064.0871   -60542.007   -867.04793 
  827000    3468.1892    -66454.15    5944.3576   -60509.792   -193.36833 
  828000    3385.5688   -66559.723    5802.7491   -60756.974    157.46853 
  829000    3545.0059   -66250.558    6076.0188    -60174.54   -88.563913 
  830000    3569.1361   -66507.291    6117.3771   -60389.913    648.70754 
  831000    3371.8996   -66845.716    5779.3205   -61066.396     173.1486 
  832000    3684.7143   -66502.167    6315.4742   -60186.692    25.354771 
  833000    3457.8006   -66529.456    5926.5519   -60602.904   -735.58146 
  834000    3484.2513   -66598.069    5971.8875   -60626.181    178.85741 
  835000     3656.372   -66513.765    6266.8965   -60246.868    294.09474 
  836000    3437.4683   -66471.825    5891.7031   -60580.122    -189.0524 
  837000    3534.7182   -66262.694    6058.3861   -60204.308   -666.01012 
  838000    3463.4622   -66729.689    5936.2556   -60793.434    376.58901 
  839000     3527.721   -66195.636     6046.393   -60149.243  -0.22484385 
  840000    3669.1925   -66169.468    6288.8703   -59880.598   -217.87319 
  841000    3480.7995   -66115.567    5965.9712   -60149.596   -24.660903 
  842000    3390.0344    -66509.28     5810.403   -60698.877   -1028.0001 
  843000    3527.9842   -66279.128    6046.8442   -60232.283    119.14821 
  844000    3737.3319   -66553.186     6405.659   -60147.527    193.35678 
  845000    3415.2662    -66244.35    5853.6494   -60390.701    451.85651 
  846000    3609.4965    -66289.58    6186.5535   -60103.027   -269.55505 
  847000    3545.9469   -66270.218    6077.6316   -60192.586    415.72632 
  848000    3585.0365   -66183.883    6144.6299   -60039.253   -47.092816 
  849000    3750.8183   -66130.545    6428.7742   -59701.771    560.64141 
  850000    3592.6675   -66569.627    6157.7092   -60411.918    376.21189 
  851000    3476.9207   -66211.935    5959.3231   -60252.612    -361.6996 
  852000    3557.0335    -66641.73    6096.6336   -60545.097    411.29943 
  853000    3608.8801   -66656.369    6185.4971   -60470.872    104.61299 
  854000    3564.6252    -66315.46    6109.6456   -60205.814    716.73906 
  855000    3547.9064   -66696.225    6080.9902   -60615.235   -388.33857 
  856000    3570.3927   -66580.134     6119.531   -60460.603    452.16501 
  857000    3449.9108     -66818.7    5913.0291   -60905.671    840.46772 
  858000    3631.2781   -66339.033    6223.8865   -60115.147    737.96757 
  859000    3267.4286   -66642.973    5600.2608   -61042.712    29.511574 
  860000     3601.093   -67083.668    6172.1502   -60911.518    506.80826 
  861000    3393.2804   -66514.353    5815.9664   -60698.386    -57.98684 
  862000    3531.3337   -66571.485    6052.5852     -60518.9    110.70177 
  863000    3632.3688   -67033.556    6225.7559     -60807.8    647.07393 
  864000    3400.6567   -67073.948    5828.6093   -61245.339   -11.722438 
  865000    3473.2509   -66416.957    5953.0332   -60463.924    108.82199 
  866000    3450.9615   -66425.452    5914.8298   -60510.622    358.39729 
  867000    3469.4504    -66673.54    5946.5193   -60727.021    641.22912 
  868000    3388.6897   -66940.382    5808.0983   -61132.284   -978.79854 
  869000     3448.023    -66916.45    5909.7934   -61006.656    251.66842 
  870000    3523.0993   -67059.288    6038.4716   -61020.817    742.28646 
  871000    3567.3918   -66945.833    6114.3875   -60831.446   -231.33133 
  872000    3727.3286   -66835.378    6388.5137   -60446.865    19.880425 
  873000    3356.9249   -66649.989    5753.6545   -60896.334   -364.30289 
  874000    3698.8718   -66713.227    6339.7397   -60373.487   -494.48968 
  875000    3356.0394   -66997.259    5752.1366   -61245.123   -210.49482 
  876000    3495.5426    -66853.79    5991.2404    -60862.55    317.32978 
  877000    3669.2983   -66915.743    6289.0517   -60626.691    27.315454 
  878000    3463.3646    -66968.83    5936.0883   -61032.741    71.687423 
  879000    3347.9318   -66874.907    5738.2405   -61136.666     506.2104 
  880000    3449.7814   -66470.866    5912.8073   -60558.059   -935.77309 
  881000    3505.0343   -66600.459    6007.5089    -60592.95    151.80176 
  882000    3482.8718   -66725.409    5969.5231   -60755.886    268.04119 
  883000    3599.1501   -66905.432    6168.8202   -60736.611    841.97419 
  884000    3541.7495   -66264.837    6070.4374   -60194.399   -694.67958 
  885000    3623.2984   -66460.457    6210.2094   -60250.248   -651.22605 
  886000    3608.8829   -66628.383    6185.5018   -60442.881   -44.380363 
  887000    3605.6358   -66878.927    6179.9363   -60698.991   -880.57272 
  888000    3668.2071   -66618.218    6287.1814   -60331.037   -38.559221 
  889000    3634.6195   -66830.244    6229.6134   -60600.631    110.82306 
  890000    3375.2145   -66434.284    5785.0022   -60649.282    199.71217 
  891000    3590.8137   -66630.491    6154.5318   -60475.959    153.57819 
  892000     3458.861   -66687.625    5928.3693   -60759.256    403.18555 
  893000    3646.0636   -66726.786    6249.2283   -60477.558   -489.56327 
  894000    3418.5004   -66747.349    5859.1927   -60888.156   -206.58959 
  895000    3421.6839   -66455.501    5864.6491   -60590.852   -406.83908 
  896000    3661.5562   -66127.958     6275.782   -59852.176    262.39725 
  897000    3520.8971   -66709.398    6034.6972   -60674.701    689.43887 
  898000     3498.373   -66490.785    5996.0916   -60494.693    323.89704 
  899000    3722.5738   -66362.046    6380.3641   -59981.682    736.62646 
  900000    3327.9143    -66613.16    5703.9312   -60909.229     532.3889 
  901000    3443.4191   -66307.053    5901.9026   -60405.151    447.17191 
  902000    3457.2931   -66524.682     5925.682       -60599    697.72459 
  903000    3503.6234    -66704.85    6005.0907   -60699.759    91.293821 
  904000    3453.8379   -66266.414      5919.76   -60346.654    109.91364 
  905000    3538.0043   -66627.278    6064.0182    -60563.26    688.61946 
  906000    3210.7717   -66563.636    5503.1529   -61060.483    448.78811 
  907000    3521.5427    -66335.78    6035.8037   -60299.976     218.5138 
  908000    3471.2147   -66494.861    5949.5432   -60545.317    306.12596 
  909000    3462.7611    -66286.23     5935.054   -60351.176    770.07604 
  910000    3547.7772   -66412.244    6080.7687   -60331.476    474.94883 
  911000    3538.9592   -66724.301    6065.6549   -60658.646    738.13027 
  912000    3581.3776   -66624.313    6138.3586   -60485.955   -554.14139 
  913000    3246.1511   -66146.861    5563.7919   -60583.069   -570.67262 
  914000      3561.63   -65986.399    6104.5119   -59881.887    14.187185 
  915000    3545.0248   -66271.777    6076.0512   -60195.726   -334.77572 
  916000    3614.7637   -66355.596    6195.5813   -60160.014    217.75312 
  917000    3538.3123   -66115.338    6064.5462   -60050.792    309.41584 
  918000    3514.6938    -66551.44     6024.065   -60527.375    494.78583 
  919000    3267.3352   -66495.706    5600.1007   -60895.605   -400.64794 
  920000    3487.5532   -66476.062    5977.5468   -60498.516     364.4976 
  921000    3520.5649   -66368.822    6034.1278   -60334.694    764.56108 
  922000    3321.5913   -66518.634    5693.0938    -60825.54    201.25241 
  923000    3336.7539   -66355.897     5719.082   -60636.815   -91.641992 
  924000    3539.0432   -66163.751     6065.799   -60097.952   -140.06477 
  925000     3400.994    -66407.38    5829.1873   -60578.193    149.03454 
  926000    3427.3572    -66509.95     5874.373   -60635.577   -138.52217 
  927000    3288.9252   -66279.124    5637.1053   -60642.019   -355.89039 
  928000    3519.6366    -66532.62    6032.5368   -60500.083    704.70105 
  929000    3596.6119    -65934.25    6164.4696   -59769.781   -210.45995 
  930000    3528.8191   -66425.066    6048.2752   -60376.791    703.78171 
  931000    3518.8155   -66302.411    6031.1294   -60271.282   -320.06969 
  932000    3517.6392   -66483.444    6029.1132   -60454.331    42.010903 
  933000    3356.3399   -66307.228    5752.6517   -60554.576    100.23445 
  934000    3449.3399   -66076.096    5912.0505   -60164.046   -301.63753 
  935000    3593.3616   -66398.874    6158.8988   -60239.975    299.65814 
  936000    3581.3518   -66330.264    6138.3145   -60191.949    9.9099976 
  937000      3334.45   -66526.404    5715.1332   -60811.271    55.817599 
  938000    3564.0268   -66300.249      6108.62   -60191.629   -23.957628 
  939000    3557.4689   -66115.389      6097.38   -60018.009   -317.04881 
  940000    3578.3717   -66227.525    6133.2066   -60094.318    469.24891 
  941000    3540.2122   -66610.039    6067.8025   -60542.237   -118.06709 
  942000    3313.3111   -66164.667    5678.9019   -60485.765   -112.13731 
  943000     3514.773   -66214.473    6024.2006   -60190.272     293.8637 
  944000    3494.7448   -66372.023    5989.8729    -60382.15      782.098 
  945000     3474.991   -66139.837    5956.0157   -60183.822    108.89077 
  946000    3373.0787   -66159.232    5781.3414   -60377.891   -125.74832 
  947000    3493.3994   -66148.871     5987.567   -60161.304    68.640814 
  948000    3680.7221   -66500.767    6308.6317   -60192.135   -136.24778 
  949000    3526.7957   -66507.735    6044.8072   -60462.927    91.438193 
  950000    3723.9794   -66251.193    6382.7732    -59868.42   -392.66405 
  951000    3609.3942   -66352.655    6186.3781   -60166.277    1256.3242 
  952000    3510.1531   -66411.034    6016.2822   -60394.752    191.73107 
  953000    3478.4323   -66464.939    5961.9139   -60503.025    264.88566 
  954000    3641.7119    -66376.86    6241.7697    -60135.09    61.447035 
  955000    3599.7717   -66246.019    6169.8854   -60076.133    101.73866 
  956000    3424.2308    -66208.37    5869.0144   -60339.356   -203.62537 
  957000    3497.7853   -66539.293    5995.0842   -60544.208    317.32048 
  958000     3696.699   -66263.647    6336.0156   -59927.631   -93.333808 
  959000    3566.5866   -66372.515    6113.0074   -60259.508   -473.84219 
  960000    3458.9154   -66018.052    5928.4626    -60089.59   -311.57738 
  961000     3396.181   -66071.312     5820.938   -60250.374   -323.97423 
  962000    3303.0942   -65872.737    5661.3904   -60211.346   -263.50789 
  963000      3544.51   -66314.701    6075.1688   -60239.532    -509.6386 
  964000    3428.7959   -66402.631    5876.8388   -60525.792   -1076.5447 
  965000    3345.1996   -65975.937    5733.5576   -60242.379   -512.18463 
  966000    3505.3225   -66276.041    6008.0028   -60268.038   -607.50476 
  967000    3527.1928   -66122.531    6045.4877   -60077.044    61.736688 
  968000    3545.2423    -66224.19    6076.4239   -60147.766   -519.13757 
  969000    3507.4674   -66055.607    6011.6791   -60043.928    479.48944 
  970000    3424.0502   -66269.409    5868.7049   -60400.705    55.650812 
  971000    3663.8967    -66318.64    6279.7935   -60038.847    94.886714 
  972000    3509.0653     -66688.7    6014.4178   -60674.282   -10.149932 
  973000    3467.9543   -66261.671    5943.9551   -60317.716    281.78933 
  974000    3577.9211   -66258.834    6132.4343   -60126.399    654.91029 
  975000    3344.9068   -66400.509    5733.0558   -60667.453   -346.20342 
  976000    3628.9457   -65967.309    6219.8887    -59747.42   -511.55864 
  977000    3604.5813   -66583.503     6178.129   -60405.374    440.70033 
  978000     3346.673   -66091.794    5736.0831   -60355.711   -551.34276 
  979000    3335.4956   -66219.804    5716.9253   -60502.879    469.71887 
  980000    3418.2316   -66027.276    5858.7319   -60168.544    349.49353 
  981000    3428.6314   -65973.978    5876.5569   -60097.421   -791.36166 
  982000    3535.1637   -65997.539    6059.1496   -59938.389   -201.29742 
  983000    3378.0449   -65960.947    5789.8533   -60171.094    61.426723 
  984000    3397.1649   -66191.768    5822.6244   -60369.144   -659.90346 
  985000    3433.1675   -66224.685    5884.3317   -60340.353    -491.5775 
  986000    3503.1405   -66690.309    6004.2629   -60686.046   -32.088492 
  987000    3234.6105   -66557.174    5544.0118   -61013.162   -347.99614 
  988000     3479.793   -66527.029    5964.2461   -60562.783    343.81923 
  989000    3643.6191    -66231.79    6245.0384   -59986.751    185.38083 
  990000    3260.8919   -66164.251    5589.0571   -60575.193     244.9661 
  991000    3497.7225   -66365.151    5994.9766   -60370.174    574.68205 
  992000    3515.2821     -66191.6    6025.0732   -60166.527     335.8074 
  993000    3370.3269   -66011.734     5776.625   -60235.109   -113.77706 
  994000    3418.3848   -66116.891    5858.9946   -60257.896   -19.494832 
  995000    3433.1174   -66482.087    5884.2457   -60597.841     990.4999 
  996000    3447.0289   -66189.216    5908.0896   -60281.127    214.52123 
  997000    3357.2625   -66592.265    5754.2331   -60838.032   -56.890172 
  998000    3544.2585   -66343.218    6074.7378    -60268.48    94.818593 
  999000    3553.6152   -66341.021    6090.7748   -60250.247    135.55823 
 1000000    3503.9844    -66292.08    6005.7093    -60286.37    814.25793 
 1001000    3499.5797   -66337.941    5998.1598   -60339.781   -39.546483 
 1002000    3437.8831   -66109.997     5892.414   -60217.583   -293.38021 
 1003000    3341.5043   -66530.424     5727.224     -60803.2   -663.52433 
 1004000    3500.9817   -65986.601    6000.5628   -59986.039   -323.95428 
 1005000    3605.3393   -66415.209    6179.4282   -60235.781   -26.344076 
 1006000    3321.9549   -66592.173     5693.717   -60898.456    -242.5866 
 1007000    3424.8188   -66266.889    5870.0222   -60396.867    178.55354 
 1008000     3455.897   -66003.543    5923.2891   -60080.254    23.042166 
 1009000    3272.3049   -66313.129    5608.6187    -60704.51    617.98513 
 1010000    3565.4049   -65735.691    6110.9819   -59624.709   -190.32655 
 1011000    3538.8899   -66348.064    6065.5362   -60282.528    308.72446 
 1012000    3586.4982   -65874.541    6147.1351   -59727.406    227.29993 
 1013000    3634.1585   -66244.124    6228.8234     -60015.3     901.9663 
 1014000    3286.1334    -66078.33    5632.3201   -60446.009   -90.759264 
 1015000     3427.067   -66093.684    5873.8755   -60219.809   -472.85131 
 1016000    3522.3979   -66384.948    6037.2694   -60347.679    322.03507 
 1017000    3703.1169   -66005.047    6347.0157   -59658.032     384.5835 
 1018000    3496.1113   -66227.459    5992.2151   -60235.244   -331.61441 
 1019000    3448.6512   -66259.476    5910.8702   -60348.606    55.700261 
 1020000    3549.7074   -66216.693    6084.0771   -60132.616    134.97898 
 1021000    3475.1873   -66258.098    5956.3522   -60301.746   -354.00438 
 1022000    3790.0821   -65953.709    6496.0709   -59457.638    192.85474 
 1023000     3539.496   -66020.586    6066.5751   -59954.011    -19.07953 
 1024000    3367.0293   -66026.627     5770.973   -60255.654    -204.7725 
 1025000    3529.8548   -66163.661    6050.0503   -60113.611   -685.41883 
 1026000    3515.1234   -66172.209    6024.8012   -60147.408   -620.91554 
 1027000    3351.1648   -66390.387    5743.7818   -60646.605   -384.89309 
 1028000    3461.7588    -66354.23    5933.3361   -60420.894    318.12793 
 1029000    3347.3022   -66294.892    5737.1614   -60557.731  -0.21727969 
 1030000    3453.5531   -66376.125    5919.2718   -60456.853   -163.76353 
 1031000    3401.6357   -65990.677    5830.2872    -60160.39   -580.71548 
 1032000    3461.9479    -66439.26    5933.6603     -60505.6    488.54378 
 1033000    3536.4906   -66521.364    6061.4238    -60459.94    248.73763 
 1034000    3721.4647   -65987.678    6378.4631   -59609.215    855.16889 
 1035000    3464.7301   -66266.525    5938.4289   -60328.096    83.711921 
 1036000    3516.2315    -66260.26    6026.7005    -60233.56    1090.3291 
 1037000    3683.3389   -66116.702    6313.1168   -59803.586   -95.270632 
 1038000    3332.7952   -66356.825     5712.297   -60644.529   -609.98385 
 1039000    3323.7415   -66087.633    5696.7792   -60390.854    598.66546 
 1040000    3384.6063   -66010.537    5801.0994   -60209.438    531.94981 
 1041000    3316.8161   -66164.323    5684.9093   -60479.414    965.23047 
 1042000    3459.0764   -66197.494    5928.7386   -60268.755   -365.82769 
 1043000    3394.5356   -66115.512    5818.1178   -60297.394    46.904416 
 1044000     3522.499   -66104.637    6037.4427   -60067.194    7.7665723 
 1045000     3335.437   -66249.513    5716.8249   -60532.689    388.93312 
 1046000    3506.1007   -65922.341    6009.3366   -59913.004    669.44342 
 1047000    3509.6504   -66332.315    6015.4208   -60316.894    -88.97433 
 1048000    3462.9169   -66229.201    5935.3211    -60293.88    526.83694 
 1049000    3417.3826   -66257.848    5857.2769   -60400.571    5.9880021 
 1050000    3438.4696   -66136.531    5893.4191   -60243.112    579.86655 
 1051000     3546.457   -65817.344     6078.506   -59738.838   -109.81272 
 1052000    3474.6515    -66321.07    5955.4338   -60365.636    501.23186 
 1053000    3448.9746   -66166.048    5911.4245   -60254.624   -600.22702 
 1054000    3389.9639   -66127.643    5810.2821   -60317.361    563.39663 
 1055000     3518.278   -66235.766    6030.2081   -60205.558   -190.10886 
 1056000    3690.5496   -66340.841    6325.4757   -60015.366    541.67301 
 1057000    3516.6948   -66187.529    6027.4945   -60160.035    375.17352 
 1058000    3622.6658   -66233.931    6209.1252   -60024.805    481.03632 
 1059000    3678.7314   -66544.355    6305.2198   -60239.135    913.78964 
 1060000    3502.2488   -66266.773    6002.7346   -60264.039    291.25836 
 1061000    3372.5648   -66229.563    5780.4606   -60449.102    187.45526 
 1062000    3468.4244   -66290.243    5944.7608   -60345.482   -777.66824 
 1063000    3487.0536   -65946.254    5976.6905   -59969.563    320.20546 
 1064000    3430.1105   -66181.763     5879.092   -60302.671   -1037.3408 
 1065000     3487.041   -66236.336    5976.6689   -60259.667    701.83133 
 1066000    3376.9853    -66003.54    5788.0373   -60215.503     84.42226 
 1067000    3619.1116   -65986.334    6203.0334   -59783.301   -192.35783 
 1068000     3460.017   -66631.001    5930.3508   -60700.651   -710.01696 
 1069000    3353.8971   -65679.025    5748.4649    -59930.56   -560.39381 
 1070000    3476.6964   -66132.155    5958.9386   -60173.217    900.87931 
 1071000    3499.5108   -66361.732    5998.0417    -60363.69   -38.132623 
 1072000    3515.3612   -66155.368    6025.2088   -60130.159     272.5143 
 1073000    3393.6321   -66172.404    5816.5692   -60355.835    842.45429 
 1074000    3333.0166   -66218.226    5712.6764   -60505.549   -797.12137 
 1075000    3780.0216   -66435.956    6478.8276   -59957.128    683.35581 
 1076000    3650.4393   -66216.958     6256.728    -59960.23   -673.66184 
 1077000    3419.0766   -66461.287    5860.1804   -60601.106   -339.27286 
 1078000    3370.1378   -65948.154    5776.3008   -60171.854   -465.12296 
 1079000    3576.1436   -66156.481    6129.3878   -60027.094    63.779667 
 1080000    3579.1203   -66071.696    6134.4898   -59937.206   -471.10106 
 1081000    3494.7329   -66234.571    5989.8526   -60244.719    371.52083 
 1082000    3526.4118   -66079.919    6044.1491    -60035.77    762.88847 
 1083000     3502.219   -66399.835    6002.6835   -60397.151    533.70419 
 1084000    3528.6716   -66053.553    6048.0223   -60005.531     405.4878 
 1085000    3312.5353   -65951.076    5677.5721   -60273.504   -280.95796 
 1086000     3356.018   -65839.751    5752.1001   -60087.651   -1218.6476 
 1087000    3581.6875    -66024.91    6138.8898    -59886.02    450.81909 
 1088000    3498.0554   -66048.553    5995.5473   -60053.006    459.46798 
 1089000    3597.4582   -66089.298    6165.9202   -59923.378   -221.48384 
 1090000    3439.0823   -65808.143    5894.4694   -59913.673    -228.4664 
 1091000    3475.8054   -66122.443    5957.4115   -60165.032   -83.146312 
 1092000     3372.894   -65863.602    5781.0249   -60082.577   -28.345801 
 1093000    3466.1779   -66367.228    5940.9103   -60426.318   -130.45605 
 1094000    3450.0897   -66389.473    5913.3357   -60476.137   -275.95686 
 1095000    3382.7035    -66143.62     5797.838   -60345.782   -71.331025 
 1096000    3431.9893   -65970.663    5882.3122   -60088.351    241.64076 
 1097000    3464.2988   -66147.439    5937.6895    -60209.75    58.973451 
 1098000    3735.1549   -66205.763    6401.9277   -59803.835   -288.79679 
 1099000    3543.9318   -66051.339    6074.1778   -59977.161    761.02309 
 1100000    3514.9879   -66189.009     6024.569    -60164.44    391.10837 
 1101000    3462.2237   -65914.516    5934.1329   -59980.383    122.22217 
 1102000     3518.172   -65812.596    6030.0263    -59782.57    198.25081 
 1103000    3531.5715   -66225.642    6052.9927   -60172.649   -409.90735 
 1104000    3556.5397   -66102.621    6095.7874   -60006.833    177.91741 
 1105000     3745.543   -65915.201    6419.7326   -59495.469   -325.72247 
 1106000     3578.514   -66075.727    6133.4506   -59942.276    45.226681 
 1107000    3525.4309   -66464.167    6042.4678   -60421.699    301.40399 
 1108000    3484.1834   -65947.031     5971.771    -59975.26    202.82037 
 1109000    3811.7769   -66589.316    6533.2552   -60056.061    548.29653 
 1110000    3458.9528   -66328.166    5928.5267   -60399.639   -487.66043 
 1111000    3438.5625   -66007.753    5893.5785   -60114.175   -50.822374 
 1112000    3439.0777   -65776.844    5894.4614   -59882.382   -55.649103 
 1113000    3661.4449   -65806.977    6275.5912   -59531.386   -862.82194 
 1114000    3624.1008   -65983.536    6211.5848   -59771.951    64.440781 
 1115000     3571.778   -66147.093    6121.9053   -60025.188   -506.30492 
 1116000    3370.0624   -65832.236    5776.1716   -60056.065    195.40837 
 1117000     3458.674   -65733.061    5928.0489   -59805.013    -347.9708 
 1118000    3636.5523   -66196.211    6232.9263   -59963.285     25.03694 
 1119000    3722.0535   -65587.699    6379.4724   -59208.227    353.62591 
 1120000    3447.6736   -65844.197    5909.1946   -59935.002    39.890169 
 1121000      3581.14   -66362.869    6137.9513   -60224.917   -278.94292 
 1122000    3730.0233   -66134.523    6393.1323    -59741.39   -259.76244 
 1123000    3538.2623   -65756.498    6064.4604   -59692.037    -31.82127 
 1124000    3579.1209   -65883.216    6134.4908   -59748.725    65.950831 
 1125000    3552.8481   -66131.456      6089.46   -60041.996    780.91635 
 1126000    3477.8202   -65958.124    5960.8648   -59997.259    330.65805 
 1127000    3383.0742    -66152.37    5798.4735   -60353.896   -863.57176 
 1128000    3395.6796   -66159.365    5820.0786   -60339.286   -913.83577 
 1129000    3392.4808   -65895.318     5814.596   -60080.722   -102.33731 
 1130000    3547.1834   -65838.996     6079.751   -59759.245    339.41575 
 1131000    3543.1708   -65942.428    6072.8734   -59869.555   -31.223251 
 1132000    3572.4448   -66215.711    6123.0481   -60092.663   -434.76251 
 1133000    3562.6676   -66021.892    6106.2903   -59915.602     696.6538 
 1134000    3495.0045    -66395.44    5990.3181   -60405.122   -119.61158 
 1135000    3469.7278   -66285.779    5946.9947   -60338.784    1656.4149 
 1136000    3467.6116   -66189.964    5943.3675   -60246.597   -76.187196 
 1137000    3569.5247   -65810.853    6118.0433    -59692.81      59.5729 
 1138000    3636.2498   -65594.171    6232.4077   -59361.764   -142.61308 
