ITEM: TIMESTEP
500000
ITEM: NUMBER OF ATOMS
576
ITEM: BOX BOUNDS pp pp pp
-1.2000000000000000e+01 8.4000000000000000e+01
-1.2000000000000000e+01 3.6000000000000000e+01
-1.2000000000000000e+01 3.6000000000000000e+01
ITEM: ATOMS id type x y z vx vy vz 
446 1 -7.94843 2.08537 6.76967 -0.0185918 0.0212046 -0.0118291 
466 2 -6.62749 -4.39488 4.09115 0.0266951 -0.0102876 0.0507983 
454 1 -6.30036 -3.48727 3.43014 0.00719191 -0.00693892 0.00528708 
443 1 -7.05607 -2.41923 4.24365 -0.000244977 -0.000192199 0.00953503 
453 1 -7.49754 -2.67101 5.67113 0.00487527 -0.00383813 -0.0185858 
456 1 -5.66579 -3.1419 2.33741 -0.00706201 -0.0156084 0.0197 
437 1 -7.05978 -0.962633 3.56206 -0.0252036 -0.0142262 -0.00359085 
465 2 -8.07507 -3.63497 6.0339 -0.0800226 0.021105 -0.0854955 
468 2 -4.91785 -3.75207 1.78245 -0.0316707 -0.0325666 0.0236689 
444 1 -5.42621 -1.85265 2.10468 -0.0197403 -0.00844029 0.00989118 
467 2 -3.14645 -2.16966 0.699561 0.0458746 -0.0363627 0.0266824 
438 1 -6.04277 -0.701112 2.71845 0.0125079 0.00328792 0.00782886 
455 1 -4.08643 -1.50575 1.17449 0.00398017 -0.0206649 -0.0100797 
433 1 -6.88768 1.5688 4.24907 0.0114473 -0.00775126 0.0155802 
435 1 -7.46873 0.355493 4.39376 0.0220969 0.00541386 -0.025884 
447 1 -5.42418 4.22499 4.34384 -0.00120778 0.0251203 0.0039918 
459 2 -5.06185 5.53921 4.36212 0.0233985 -0.0657683 -0.0728189 
445 1 -6.45742 3.86759 5.29724 0.015941 -0.0124546 -0.0128165 
434 1 -6.1151 1.91228 3.16315 -0.000111265 -0.00452974 0.00760783 
436 1 -5.77864 0.746044 2.37085 -0.00730025 0.00468118 -0.0247537 
452 1 -4.09072 -0.160177 1.11908 0.00584542 -0.00371647 -0.00427224 
442 1 -4.42123 1.04475 1.46813 -0.00959687 0.0230547 -0.00430934 
451 1 -4.06318 2.4358 1.26514 0.0196013 0.00480334 -0.0107544 
463 2 -3.18079 2.93978 0.875923 0.00404676 -0.0447777 0.00791685 
448 1 -3.93632 3.32613 2.51592 -0.00810047 -0.0025449 -0.0175005 
440 1 -5.15303 3.12476 3.23947 -0.00259323 -0.013558 -0.0217058 
460 2 -3.0565 4.02536 2.51676 -0.0302869 -0.0281636 0.0589173 
441 1 -7.74016 -0.129086 5.70505 -0.0231545 0.0111088 -0.00652754 
387 2 4.49276 -9.37438 7.91281 -0.0080417 -0.0603655 -0.086602 
362 1 5.16249 -11.239 11.0803 0.00117806 0.00484616 0.0121115 
361 1 5.21403 -10.0872 11.9372 0.00756099 -0.0319542 -0.00857923 
439 1 -7.23211 2.57295 5.5784 -0.0131907 -0.0357929 0.01191 
368 1 4.7377 -10.8989 9.78873 -0.00564471 0.018764 0.0344662 
367 1 5.29988 -8.82386 11.2035 -0.0162782 -0.0217313 -0.00663197 
375 1 4.4196 -9.69999 8.92195 -0.00338193 0.0092663 -0.0248691 
385 2 4.18166 -7.61755 9.08706 -0.0734254 -0.104268 -0.0794361 
373 1 4.84911 -8.55015 9.69066 0.0254948 0.00482964 -0.00541913 
461 2 -8.40326 -0.179606 7.29626 -0.00318386 0.00387612 0.0406598 
449 1 -7.76111 0.746173 6.77897 0.0144108 -0.0168655 0.0118461 
462 2 -9.02511 -2.07399 6.57842 -0.000740618 -0.0413994 -0.104141 
450 1 -8.19971 -1.47477 6.05897 0.0195704 -0.00941245 -0.0205881 
457 2 -7.03159 4.82951 5.41973 0.0741644 -0.0977906 -0.104955 
458 2 -8.54107 2.6045 7.34583 0.0283216 -0.0161471 -0.0650869 
388 2 3.78043 -11.5308 7.93057 0.0384135 0.0839744 -0.00801769 
386 2 6.23858 -7.2288 11.8007 0.0235938 -0.0494679 0.00820267 
376 1 4.18478 -11.8144 8.79129 -0.00356918 0.00728188 0.00164541 
369 1 5.4759 -8.87594 14.6108 -0.0195528 0.00442918 -0.000777243 
365 1 5.57659 -11.2916 14.1452 0.00213478 -0.00152209 -0.00274359 
371 1 4.74918 -11.5467 15.2463 0.00429348 -0.0229184 0.0216437 
363 1 5.40977 -10.0832 13.4283 0.00611244 -0.000581023 0.0212268 
393 2 4.33287 -10.8006 17.3826 0.00106633 -0.138619 0.035866 
381 1 4.69176 -10.387 16.3737 -0.0174758 -0.00993131 0.000130073 
377 1 5.40179 -7.68714 13.6812 -0.0189442 0.0108453 -0.0145552 
378 1 5.41227 -8.98241 16.1719 -0.00298239 -0.00175053 0.0218321 
389 2 5.05105 -6.78173 14.111 0.102594 0.0234069 -0.0253642 
495 2 5.78936 -8.28794 16.754 -0.0473209 -0.0841832 0.0265227 
248 2 -3.54861 8.5706 17.4331 0.00648616 0.140151 -0.0185904 
252 2 -3.71588 9.88192 15.5248 -0.122196 -0.0458932 0.036442 
390 2 2.77863 -11.7752 16.143 0.044313 -0.0192423 0.0739871 
240 1 -4.45939 10.7731 15.7294 -0.00752805 0.00855965 -0.0164161 
228 1 -4.77049 10.8294 17.2366 3.14992e-05 -0.00715723 0.0400293 
222 1 -5.84713 11.5307 17.9508 -0.0205054 -0.00335123 0.0175048 
239 1 -4.56545 9.28772 17.6292 0.0208479 -0.0110526 -0.0157783 
423 2 10.39 2.56588 25.8158 -0.062793 -0.106277 -0.090809 
425 2 7.01231 5.3441 31.1079 0.0495198 0.0583055 0.0832978 
25 2 9.08292 -10.7106 23.1207 0.0502124 0.0359502 -0.107949 
26 2 10.1474 -9.462 22.5178 -0.0986072 0.0429791 -0.0337792 
14 1 11.0541 -10.1668 22.2764 0.0118271 0.00107867 -0.0330908 
430 2 3.31363 5.23874 22.5165 0.0877098 0.0573428 0.0144142 
244 2 -8.42372 9.92836 21.5588 0.0326312 0.0352876 0.00406645 
235 1 -7.15444 9.17188 20.4266 -0.00204845 0.0297069 0.0034178 
218 1 -7.53805 11.7231 19.1912 0.00719164 0.0209483 -0.0301945 
224 1 -8.56917 11.4174 19.9145 -0.0109127 0.00676089 -0.00914402 
232 1 -7.92066 10.2057 20.6703 -0.018233 -0.0180278 -0.0220319 
226 1 -6.4633 9.40699 19.1327 0.00260967 -0.0232479 -0.00911702 
424 2 11.7782 5.47803 24.5772 0.100009 -0.00865821 -0.00425789 
247 2 -6.78532 8.37277 21.2262 -0.0585876 0.0351585 -0.0247839 
251 2 -5.15875 7.58833 18.3941 -0.0199893 -0.00984525 0.117654 
236 1 -5.43333 8.69979 18.1872 0.028512 0.011565 -0.00572261 
220 1 -6.75191 10.6632 18.5434 -0.026416 0.00816734 0.00662001 
428 2 8.69231 7.37056 21.9574 -0.0934903 0.00156055 0.0479014 
431 2 6.58981 8.35094 22.7535 -0.0187717 -0.00560596 -0.0624292 
416 1 7.97726 6.87384 22.7553 -0.022732 -0.00549475 -0.00122541 
419 1 6.5498 7.25518 22.856 -0.00624184 -0.0211394 0.0110681 
426 2 3.86305 5.48445 29.7792 -0.0345897 0.119428 0.0239844 
432 2 4.83886 4.50069 21.9966 -0.0420386 -0.00437749 0.0196046 
414 1 4.86421 5.66797 29.0044 -0.0275126 -0.00693906 0.00588759 
418 1 4.33526 5.05758 22.7637 0.00346797 0.0266499 -0.0366617 
420 1 4.92839 5.80048 23.32 0.0221357 -0.00719944 -0.00048217 
412 1 10.6534 5.40031 24.6804 -0.016258 -0.0221946 -0.0147438 
409 1 9.60215 2.89193 27.574 0.0136882 0.0137905 0.00963248 
404 1 10.1719 4.75172 25.9396 -0.01731 0.0106808 0.0211568 
422 2 8.45351 3.30082 30.7214 -0.0276437 0.0138925 -0.0337865 
410 1 8.08188 3.61084 29.7826 -0.00705404 0.00231799 -0.0187876 
413 1 7.28485 4.82706 30.0856 0.0148218 -0.00733704 0.0143435 
397 1 7.91152 4.52594 27.2469 -0.00592134 -0.0126513 0.0151525 
405 1 6.20926 5.0415 28.9029 0.00988474 -0.00427725 -0.0155351 
399 1 6.72938 5.35258 27.5689 0.0106413 0.0342479 -0.00638764 
398 1 8.62359 5.01444 25.9776 -0.0319483 -0.00736995 -0.012843 
403 1 8.4618 3.55923 28.26 -0.0227409 -0.0108661 0.014634 
411 1 10.4052 3.40446 26.5116 0.00485208 0.00887223 0.00823308 
357 2 1.10276 -5.00687 26.6927 0.0594728 -0.112669 -0.00516566 
429 2 4.01644 7.25956 26.1243 -0.0576914 0.0524906 -0.000137958 
417 1 4.08841 5.88724 27.6304 -0.00530793 -0.0042446 -0.0147218 
407 1 4.68794 6.4224 26.4772 -0.0205894 -0.0132427 -0.0295017 
427 2 10.3039 5.89001 22.3503 0.0286789 0.0116577 -0.106076 
401 1 6.00591 5.89614 26.4748 -0.00414356 0.0225508 -0.0115372 
408 1 5.8578 6.57707 23.9811 0.00264663 0.00190191 0.00730384 
415 1 9.96832 5.52328 23.4136 -0.00213553 -0.00632971 -0.017019 
406 1 8.68662 6.09136 23.7439 -0.0318509 -0.036592 -0.0173784 
400 1 7.77573 5.74345 25.1069 -0.00401591 0.0101611 -0.00563473 
402 1 6.62282 6.06483 25.2901 -0.00989206 -0.00907706 0.0307162 
374 1 5.54748 -7.84949 12.2797 0.0225901 0.0189786 -0.0175631 
7 1 10.918 -11.2816 23.0943 0.0249834 0.0185445 -0.0132943 
243 2 -10.4564 11.2652 20.9714 -0.085554 -0.00652329 0.0365261 
31 2 11.2856 -10.9741 26.2878 0.00417611 0.0842266 -0.0127924 
13 1 9.5309 -11.7812 23.004 0.00969752 0.0234753 -0.0157985 
231 1 -9.81435 11.9869 20.228 -0.0278138 0.0109237 -0.0195537 
464 2 1.06508 18.783 2.88763 -0.0380634 -0.00806222 -0.051171 
370 1 4.52001 34.2884 10.6024 0.0183572 0.00412032 -0.00319906 
379 1 4.07102 34.7647 9.09451 -0.0099208 0.006877 -0.00197345 
391 2 4.40096 33.9162 8.40526 0.0156575 -0.0052078 -0.0379025 
380 1 3.84041 33.2336 11.4854 0.0122383 -0.00371969 0.00925918 
392 2 3.11059 32.3306 11.1814 -0.0511849 -0.041476 0.00890262 
364 1 5.09824 35.3664 11.66 -0.0176335 -0.0181085 -0.0141836 
245 2 -8.70119 15.8414 15.7731 -0.142283 0.0136791 -0.00883533 
233 1 -8.39815 15.1522 16.6003 0.0346583 -0.00579518 0.0116231 
225 1 -7.04509 15.0272 16.9624 0.00553785 -0.00252888 0.0306624 
246 2 -5.20292 16.3583 16.4757 0.15555 -0.0498256 0.0810129 
234 1 -5.76851 15.4959 16.301 -0.0278682 0.00016531 0.0141047 
219 1 -6.83988 13.6108 17.5518 0.00485457 0.00622218 -0.0295059 
242 2 -10.2204 14.518 16.9099 -0.0123912 0.015427 -0.00882374 
230 1 -9.27827 14.2951 17.1859 0.0214627 -0.0162567 0.00388415 
249 2 -4.26384 14.5636 15.1378 -0.00478052 -0.0152674 -0.0415724 
237 1 -4.94758 14.4083 15.8077 -0.0241091 0.0216116 -0.0195633 
227 1 -5.18687 13.0321 16.0187 -0.0247104 -0.00526993 0.00151839 
221 1 -5.9679 12.7243 17.1931 -0.0168112 0.00525866 0.00705937 
384 1 3.40662 34.6157 14.6353 -0.00672907 0.0271542 -0.00403041 
382 1 3.62301 35.6785 15.4859 0.00585974 -0.00319454 0.0171417 
396 2 2.52806 33.8285 14.6782 -0.0038684 0.00340035 0.03776 
93 1 4.07253 23.7563 26.0098 -0.00935774 -0.0174615 0.0133397 
372 1 4.10887 34.6272 13.3096 0.00430846 2.97797e-05 -0.0251898 
395 2 3.68656 32.0542 13.6915 0.0275368 -0.0291109 0.0230924 
366 1 5.37001 35.5518 13.064 0.0208047 0.00397431 0.0244034 
383 1 3.94978 33.1454 12.9547 -0.00986512 0.0150598 0.0301297 
241 2 -11.0362 13.3215 19.3346 -0.018994 0.0487431 0.0327419 
223 1 -8.93514 13.6128 18.4047 -0.0198056 0.0269432 -0.0215318 
229 1 -9.94454 13.2549 19.3958 -0.00960603 -0.00356998 0.0185527 
217 1 -7.48042 13.0676 18.6714 0.0258057 0.0146941 -0.000650393 
19 1 11.7957 34.7799 25.5395 -0.0051891 -0.010571 -0.00304339 
73 1 7.64899 23.7194 23.2143 -0.00246685 0.00418322 -0.00974363 
97 2 9.71924 23.2008 22.9397 0.0425501 0.0868329 0.00118038 
79 1 8.86084 23.0389 23.5453 -0.00528997 -0.00895824 -0.023349 
212 2 -8.379 31.4264 20.2871 0.0301379 0.0167478 -0.00136324 
200 1 -8.6599 30.5056 20.8471 0.00834098 0.0163965 0.0214685 
215 2 -7.61044 29.0422 22.0962 0.0547962 0.0249439 0.0759064 
203 1 -8.58954 29.2626 21.6156 -0.000895457 0.0216917 -0.0106651 
192 1 -9.71533 28.3611 21.6252 0.0184608 0.0157295 0.0126187 
186 1 -11.0624 28.9921 21.7569 0.00964234 -0.0305332 -0.007645 
204 1 -9.64641 27.0317 22.0151 -0.0137538 -0.00306313 0.0100999 
214 2 -9.98563 25.5549 23.6964 -0.0588337 -0.053403 0.00967185 
191 1 -11.3387 27.3936 23.4267 -0.00557837 0.00695805 0.029945 
202 1 -10.4006 26.5335 23.3525 -0.0166045 -0.0209271 -0.01011 
185 1 -11.9474 28.5026 22.7249 0.00361639 0.00345753 -0.0174414 
94 1 3.2431 24.726 23.6464 -0.00152254 -0.0479223 -0.00163999 
106 2 1.69869 25.3283 21.5449 -0.10165 0.0294598 0.0365517 
96 1 2.87762 25.331 22.2517 0.0108119 0.0409243 0.0184505 
107 2 3.1997 27.6824 20.807 -0.00875498 -0.00120804 -0.0122178 
84 1 4.01664 26.1942 22.2825 -0.0234855 -0.00114278 0.0122695 
95 1 4.17743 27.2902 21.2463 0.0095765 -0.0177301 0.00307925 
78 1 5.41823 25.6918 22.8425 -0.00832359 0.0126517 -0.0105844 
77 1 5.38898 24.9795 23.9807 -0.017009 0.0160171 -0.0154536 
92 1 5.21984 26.7318 20.1996 -0.0144879 0.0133102 0.0163289 
76 1 6.60497 25.5175 21.9847 -0.00549794 0.0214145 -0.00673942 
82 1 6.42905 26.7769 21.0096 -0.0125604 -0.00880885 0.0144797 
104 2 5.26808 25.6923 19.8607 -0.0608089 -0.0050154 0.0694834 
91 1 6.76054 27.9668 20.7186 -0.0139499 -0.000507929 -0.0292227 
74 1 7.73285 24.4877 21.8165 -0.00589935 0.00201327 -0.00308046 
88 1 7.70827 29.1287 20.6711 -0.0175139 0.0075826 0.0165347 
355 2 8.62743 24.656 21.3297 0.0523957 0.0367555 0.0264442 
103 2 8.5305 28.8076 21.1499 -0.032153 0.0237926 0.0259898 
211 2 -9.69791 32.9665 19.7832 0.108348 -0.0326886 -0.0508147 
199 1 -10.4171 32.2826 20.2802 -0.00945928 0.00512173 -0.00717496 
28 2 10.939 35.0131 27.0591 -0.0087097 0.0410348 0.0756585 
184 1 -11.3339 30.232 21.1498 -0.0155054 0.008001 -0.00440085 
196 1 -11.8217 32.5217 19.9667 0.0207227 0.0326551 -0.00619249 
190 1 -10.1431 30.7928 20.3165 0.0167179 0.0044806 0.0112616 
83 1 4.09109 24.7185 24.8198 0.0157037 0.0150105 0.0109605 
99 2 7.75487 32.7727 18.3527 -0.053596 0.101999 -0.0683226 
85 1 7.39951 31.7895 18.3123 0.0150973 -0.00713701 0.0186279 
27 2 9.81348 33.3087 22.0906 0.0105603 -0.00143278 0.0760329 
80 1 6.79433 30.6742 20.7247 0.00291803 -0.0116866 -0.0205947 
87 1 7.06303 31.4116 19.619 0.0151182 0.0169829 -0.00764993 
100 2 7.00184 30.8262 21.9924 -0.0164884 0.00632404 0.027493 
2 1 11.5178 34.0265 22.7432 -0.0114819 -0.0145972 0.0165639 
86 1 8.32923 21.6991 23.9819 -0.00333218 -0.00744442 -0.0102235 
1 1 11.5631 35.5454 22.468 0.021813 0.0218231 0.0164003 
75 1 6.39659 23.9149 23.9336 0.0105935 -0.0112554 0.0125634 
16 1 11.3019 35.8242 26.2913 -0.00338405 -0.025157 0.0106822 
15 1 9.17183 34.9954 23.5901 -0.0112914 0.0103117 0.0468586 
8 1 10.0336 33.7815 23.1223 -0.000181134 0.0121202 -0.00217954 
102 2 4.74855 21.5686 25.8117 -0.0383262 -0.138485 0.0547906 
90 1 4.69821 22.5411 25.3363 -0.0178333 -0.00673775 -0.022446 
101 2 7.06474 21.1118 25.8275 -0.0392073 0.0447506 -0.0201924 
98 2 8.88762 21.0539 23.314 -0.00403582 0.0537986 0.000507981 
81 1 6.22156 22.678 24.6407 -0.014412 0.0111328 -0.0186983 
89 1 7.34012 21.7745 25.0549 -0.0294209 0.000956062 0.00607849 
238 1 -4.24178 12.1367 15.4701 0.0186398 0.0250237 -0.00901648 
250 2 -3.94388 13.0199 14.7719 -0.0347048 0.106179 -0.0992141 
504 2 25.1174 -3.18607 -0.719038 -0.0699526 0.110573 0.00506699 
421 2 16.4107 2.51298 -4.46272 0.0306088 0.0889921 0.0851533 
71 2 25.0823 -2.60823 -1.21862 0.0309579 0.0233442 -0.105952 
176 2 12.8378 6.75556 -6.7187 0.0372197 0.0626002 0.0268485 
21 1 15.4249 -11.8266 20.9427 -0.00397253 -0.0187503 -0.0232038 
469 1 35.4617 4.07171 29.7372 0.0050369 0.00482525 -0.0112331 
18 1 14.4183 -10.7349 20.8199 -0.0147606 0.000757325 0.0143032 
30 2 14.5133 -9.56079 20.4568 0.150434 -0.0419627 0.0404351 
9 1 13.3064 -10.9601 21.5147 0.00533464 0.00311186 0.010267 
137 2 24.9093 -5.52127 20.8486 -0.0534894 -0.105471 0.0218673 
138 2 22.9448 -5.32353 20.7749 0.00313071 -0.0407185 0.0536927 
141 2 21.0726 -3.17477 20.8222 -0.0420919 -0.073531 0.0621621 
129 1 21.606 -3.64452 21.5041 -0.00546651 0.0158644 0.0076795 
126 1 22.3482 -4.92041 21.6254 -0.000856088 0.011542 0.00253919 
119 1 21.5908 -3.10482 22.9089 -0.00882266 -0.0153849 -0.000991288 
130 1 20.3017 -2.53916 23.4032 -0.00855933 -0.00654208 0.00829873 
142 2 19.4233 -2.48614 22.9734 -0.00617339 -0.00543619 0.00164286 
113 1 22.9953 -2.57944 23.4231 0.0149805 -0.0214879 0.0049574 
132 1 20.3805 -1.86099 24.6312 0.00617089 0.00736938 -0.00910452 
114 1 22.797 -1.54871 24.4289 -0.00460836 -0.000261637 0.0280788 
117 1 23.6331 -4.41797 22.2017 0.0142486 -0.00497423 0.00927188 
125 1 24.6867 -5.26249 21.7857 0.00114065 -0.0367018 -0.0123915 
122 1 25.9074 -5.03351 22.4743 -0.022428 0.0147226 -0.00512062 
134 2 26.7887 -5.74806 22.3807 0.0378593 -0.02084 0.0504375 
115 1 26.2432 -3.82088 23.0444 -0.00837823 0.00252703 0.0284351 
133 2 28.8134 -3.52083 23.4824 0.0219981 -0.0244604 0.0233461 
111 1 24.0603 -3.29877 23.0591 -0.00736496 -0.00521411 -0.00671617 
109 1 25.3382 -3.1138 23.8505 0.000979724 0.0219175 -0.00569765 
121 1 27.6162 -3.65101 23.77 0.0135435 -0.0230471 0.0176071 
123 1 27.8456 -2.62439 24.6556 -0.001287 0.00105822 0.00865958 
110 1 25.5762 -1.77241 24.5471 -0.00540769 -0.00162494 0.00708969 
116 1 26.9476 -1.90033 25.2558 -0.0179878 -0.00576616 0.0283482 
474 1 35.3481 1.43638 30.1561 0.000660668 -0.0113571 0.00237983 
144 2 19.3934 -1.7968 25.2932 0.0138208 0.0214375 -0.0383269 
120 1 21.6672 -1.13697 25.0374 0.0132436 -0.00125156 0.036314 
112 1 24.2752 -1.23027 24.8164 -0.00192934 0.019014 0.0289084 
472 1 33.3342 2.43341 29.908 -0.0137783 0.0229537 0.0169284 
17 1 12.1524 -9.94871 21.4586 -0.00176292 0.0191444 -0.00101175 
143 2 19.3128 0.512336 26.6821 -0.0739927 0.011102 0.00626354 
128 1 20.19 0.00535869 27.0317 0.0266888 -0.00726554 0.0292222 
131 1 21.1928 -0.294255 26.1222 -0.0111385 -0.00852772 0.00101435 
140 2 20.8639 0.0719824 28.1354 0.0177361 0.00512637 -0.0869342 
139 2 24.2064 -0.143999 26.4737 0.00184828 -0.0932497 0.0141071 
124 1 27.4066 -0.548963 25.6149 0.0110464 0.00346006 0.0139027 
136 2 28.4954 0.191486 25.3192 -0.0758461 -0.114292 -0.0741009 
118 1 24.7598 -0.059488 25.7116 -0.00768273 -0.00346935 0.00374404 
127 1 26.3379 0.295703 25.9143 -0.00692948 -0.00289717 0.00703633 
177 2 26.9124 1.29507 25.7879 0.00214294 -0.0117515 0.0307357 
473 1 34.0593 1.23661 30.509 0.0219466 -0.0150232 -0.00642116 
483 1 35.2377 3.70022 26.7719 0.0428071 -0.013328 0.00866501 
484 1 33.0645 3.06054 27.2636 0.00759455 -0.0109062 0.0117877 
476 1 34.1502 3.65479 27.8134 -0.0112182 0.00945478 -0.0398929 
470 1 34.1714 3.52771 29.4114 -0.0110176 -0.0128425 -0.00608652 
487 1 32.1739 2.16284 27.721 0.0231014 0.0194664 0.00131482 
499 2 31.8077 1.28359 27.2009 0.00245574 -0.0844766 -0.0401393 
478 1 32.0261 2.29759 29.1753 -0.0117318 0.0141451 -0.0290242 
503 2 31.0583 1.91957 29.7713 0.0661863 -0.0457499 0.0345497 
475 1 35.7231 5.4452 29.5473 0.0184302 0.0255298 0.00381016 
489 1 33.5165 -1.61926 34.3411 0.00291187 0.0106769 0.0137407 
502 2 34.6298 -0.150549 34.5847 -0.128001 -0.0171874 -0.0241487 
492 1 33.8112 -0.313197 33.8558 -0.0107904 -0.00266591 -0.0133483 
490 1 33.8702 0.121421 32.5876 0.00416299 -0.0191232 0.0142603 
486 1 32.884 -2.68238 34.8885 0.00276271 0.00542567 -0.0218982 
108 2 35.1256 6.17441 29.311 -0.0283836 -0.127939 0.015545 
480 1 34.2463 0.400546 31.4708 -0.00187651 -0.0088038 -0.00850036 
566 2 35.4397 8.99975 34.8392 -0.0522867 0.0692922 -0.117161 
29 2 12.8988 -9.27938 20.6975 0.0320931 0.0249981 0.0106303 
3 1 13.0081 35.768 22.1631 0.00963577 0.0171877 -0.0221002 
22 1 16.4655 34.5478 22.7011 -0.00453228 -0.0229519 0.0165691 
5 1 14.1302 34.8883 22.9206 0.00648356 0.0110015 -0.0300423 
4 1 12.4522 33.4118 23.7003 -0.00634116 -0.00711091 -0.00435717 
11 1 15.3227 35.3611 22.1493 -0.0195927 0.00264317 -0.000606237 
6 1 13.8886 33.602 23.2554 0.0190022 0.0112312 -0.00176207 
34 2 17.1194 34.2222 22.0207 -0.0558645 0.0705711 -0.0857295 
24 1 16.3701 33.6097 23.5898 -0.0142784 0.00216104 -0.0138415 
23 1 14.6299 32.1033 24.9649 0.00694303 0.0149212 0.0114943 
35 2 13.9681 31.2289 24.8606 -0.0125892 0.0312826 -0.10717 
36 2 17.2468 32.9133 23.9734 -0.0316991 -0.054737 -0.0369513 
20 1 13.5431 32.6585 25.8223 0.0145935 -0.0372926 0.0319276 
32 2 13.2696 32.9499 26.9487 -0.0374282 0.0385352 0.0193949 
12 1 14.997 33.3687 24.2136 0.0167162 0.0187844 -0.0204667 
10 1 12.4707 33.4018 25.1155 -0.00358232 0.0120211 -0.0100572 
33 2 15.8866 36.081 19.8531 0.0438476 0.0629648 0.0170182 
552 1 41.1444 12.0153 -9.94631 0.0174976 0.0195098 -0.0392115 
570 2 36.7493 8.3055 -11.198 -0.0372767 -0.0127029 -0.0552198 
546 1 40.4686 11.8033 -11.1801 0.0243901 0.017137 -0.00357522 
545 1 39.0592 11.4189 -10.9594 -0.022581 -0.00544205 0.009745 
70 2 53.1774 11.5049 -3.51696 0.0808051 -0.0147864 0.00184479 
551 1 38.6273 11.234 -9.5336 0.023522 0.0148553 0.0225888 
573 2 38.1451 9.43937 -8.47338 -0.00742582 -0.129242 0.111014 
549 1 37.101 9.90939 -11.7882 0.0242684 -0.00473082 0.00385637 
561 1 38.1678 9.82414 -9.47946 0.00824476 0.0127698 -0.0219735 
54 1 51.9402 10.9686 -9.37022 0.00124279 0.0169347 -0.00400084 
57 1 51.8807 10.5313 -7.9294 0.0104969 0.00954443 -0.00579928 
69 2 51.3379 11.0313 -10.2776 -0.00960983 0.0268869 -0.00266444 
66 2 51.8206 9.58348 -7.6442 0.0608401 0.043161 0.0798594 
47 1 51.8683 11.4085 -6.9026 -0.00715671 -0.00801925 0.0066803 
574 2 38.9079 11.545 -7.44547 0.0433562 0.0247158 0.0328334 
60 1 52.4912 11.6742 -4.46089 0.0138815 0.00756205 -0.0192667 
558 1 37.3445 9.31475 -10.5935 -0.00803327 0.0108213 -0.014874 
58 1 51.7401 10.9683 -5.48902 0.0305286 0.0185167 0.018608 
575 2 43.3584 11.7213 -10.122 0.025433 0.0914608 0.0845887 
539 2 49.3621 -0.780342 20.6062 0.0811952 0.0966577 0.0163227 
179 2 49.8852 -0.186188 21.0682 0.0237091 0.0650523 0.0507938 
481 1 36.0715 3.75934 25.8888 -0.0253652 0.0291462 -0.00457441 
493 2 36.3001 4.49865 25.0661 -0.0569895 -0.0399674 0.00859395 
501 2 38.5574 2.75623 32.6246 0.0316237 -0.0613108 0.012998 
497 2 37.6478 1.03449 30.2243 0.0250032 0.082905 0.0149508 
482 1 36.6312 6.04888 30.5653 -0.0112409 0.0238009 -0.0117923 
485 1 37.4182 5.28036 31.2889 -0.0110392 0.00645041 0.00137268 
500 2 40.8227 4.74774 31.811 0.0440042 -0.00216201 0.0506741 
498 2 38.5374 4.8982 32.4396 -0.0322312 0.00056852 0.000617511 
491 1 39.8008 4.34364 32.1845 -0.00136979 0.0171131 -0.00485566 
488 1 39.0507 3.21698 31.7492 -0.010646 -0.0105887 0.0167544 
477 1 37.8364 4.02526 31.0792 0.0170611 0.0243871 -0.0215579 
471 1 36.8199 3.33785 30.2474 0.00483872 0.00841981 -0.00153902 
479 1 36.751 1.84449 30.0529 -0.000999785 -0.00428352 -0.0210588 
496 2 36.7029 2.84792 26.1452 -0.0159217 0.00341444 0.082784 
547 1 36.9667 12.0596 33.8515 -0.0159046 0.0239512 -0.00556658 
553 1 39.212 10.5975 31.0016 0.00812044 -0.0251759 0.0166633 
542 1 39.7085 11.8571 34.2428 0.00785425 0.0156643 -0.0212102 
555 1 39.6632 11.2988 32.0028 0.0124016 0.0390946 -0.0103596 
541 1 38.3019 11.8154 34.681 0.0268812 -0.000906704 0.0254694 
554 1 36.6794 10.7172 34.2265 -0.00649185 -0.00414788 0.00118975 
565 2 39.227 9.60353 31.3635 0.00713794 0.0834345 0.0435997 
543 1 38.3584 10.986 35.9779 0.0322236 0.000815628 -0.00625899 
544 1 40.8768 11.8784 35.3821 -0.0444027 0.0194694 -0.00861626 
494 2 36.8558 7.14978 30.5363 0.0277383 -0.0166758 -0.0353242 
567 2 39.0862 11.0992 30.0153 0.0464596 0.0657265 0.0476974 
557 1 36.3879 9.70521 34.9019 0.00394421 -0.0163415 0.0168707 
572 2 43.6518 12.8775 -12.2526 0.00839048 0.0611325 -0.105056 
576 2 41.257 12.4636 -7.76886 0.0142797 -0.0419976 -0.00563372 
271 1 58.3758 23.2474 9.07583 0.00679124 0.0249492 0.0347847 
564 1 40.6732 11.9979 -8.53719 -0.0116849 -0.00954168 -0.0123521 
560 1 42.8046 12.7249 -11.6985 -0.0171711 -0.00980112 -0.00268452 
268 1 59.857 23.5316 9.09259 0.0139628 0.0197525 -0.0139682 
262 1 58.2515 22.3127 7.82919 0.0132634 -0.0344456 -0.0119082 
42 1 52.9294 13.6432 -6.3148 -0.00673511 -0.0103006 0.00233755 
40 1 53.551 14.9991 -6.53966 0.00780391 0.0066046 -0.042512 
41 1 52.8111 12.7368 -7.39232 0.00716156 0.00592088 -0.00339536 
50 1 55.8108 13.2631 -10.5256 -0.0211276 0.00575498 -0.0207061 
38 1 54.895 14.9162 -7.25703 0.00822003 0.00423746 0.00893199 
52 1 55.1941 17.0357 -5.99179 -0.00628471 0.00556361 0.0228921 
44 1 55.6226 16.0468 -7.10464 -0.000801944 -0.0160317 0.0297838 
51 1 56.7546 16.3346 -7.92601 0.00381361 -0.00268908 -0.00495077 
63 2 57.174 17.4319 -8.0417 0.0457706 -0.0456256 0.0961949 
64 2 55.4205 18.2326 -5.7628 -0.0350532 0.0671171 -0.0290064 
49 1 56.7749 15.3814 -8.90382 0.00632937 0.0323398 0.0022012 
43 1 55.663 14.3478 -9.37481 -0.0144958 0.00752036 0.00668663 
61 2 57.5089 15.7076 -9.55378 -0.0116192 -0.121411 0.0113157 
37 1 54.8577 14.0314 -8.5653 0.0143374 0.025073 -0.0299522 
39 1 53.5777 12.9052 -8.59928 0.0131744 -0.00277845 -0.0139264 
284 2 56.1661 22.2566 7.74286 -0.0330112 0.00039935 0.00953851 
48 1 52.4469 13.2509 -4.83262 0.007502 -0.0110969 -0.0195495 
53 1 56.9371 13.1967 -10.9959 0.00760929 -0.00467484 -0.00486064 
65 2 57.9035 13.6113 -11.3554 -0.082343 -0.0566757 0.0956586 
56 1 53.1866 13.892 -3.75453 0.00499609 -0.0213483 0.0116651 
46 1 53.2655 15.7601 -5.26509 -0.00347445 0.011655 0.0125964 
68 2 52.2707 15.1799 -2.44121 0.0633948 0.0515181 0.014926 
72 2 53.0962 13.1467 -2.9464 -0.0778747 -0.0368455 0.134958 
59 1 52.7542 15.3732 -3.60053 -0.00929572 -0.00765566 0.0202509 
67 2 53.5274 16.1872 -3.40371 -0.0583457 0.0438681 0.072113 
55 1 54.1095 16.8044 -5.4655 -0.0102307 -0.0109667 0.014154 
288 2 56.4513 20.9918 3.01782 0.05817 0.0352118 0.0223418 
276 1 57.4842 21.239 3.43283 0.00880243 -0.0189086 -0.017898 
264 1 57.8194 21.5494 4.71427 -0.0034098 0.0118289 0.00592704 
274 1 58.33 21.3534 2.5393 -0.0159761 0.0030426 0.0185578 
286 2 58.0482 21.0672 1.46035 -0.0702579 0.0554985 0.0527701 
263 1 59.6049 21.7353 2.77007 -0.00627015 0.0168518 0.00708278 
258 1 58.9947 21.6477 5.38458 0.000273674 -0.0357266 -0.0178073 
257 1 59.7517 22.1101 4.18978 0.0169599 0.00549922 -0.00427093 
287 2 55.8783 22.6859 5.38959 -0.0504403 0.0507926 0.0366136 
275 1 56.7083 21.9603 5.72647 -0.01 -0.00760807 0.00940388 
256 1 59.2031 22.4451 6.71908 -0.0112392 -0.00258991 -0.0173396 
272 1 57.0582 21.8448 7.13551 0.0141331 -0.0056353 -0.00498951 
62 2 55.5479 12.2527 -10.3118 0.0723025 0.0598339 -0.0320052 
563 1 42.4862 12.1904 -10.5043 0.00432783 -0.00489078 -0.0154173 
45 1 52.8486 12.1891 -9.61035 -0.0228938 0.00305635 -0.00185717 
562 1 39.3275 12.0005 -8.49279 0.00303202 -0.0136152 0.0250818 
105 2 44.8499 29.6923 24.0125 -0.0400848 -0.0434732 0.00675314 
210 2 53.9686 28.071 23.301 0.0114414 0.0510931 -0.00968281 
360 2 52.7072 27.7052 27.1467 0.0528656 0.0442175 -0.0099693 
348 1 52.4824 28.4837 28.136 0.0014382 -0.03347 0.0161099 
346 1 53.626 28.4883 28.9549 -0.00923192 -0.015159 -0.0221795 
356 2 47.7473 28.9906 27.9716 -0.0440718 -0.025054 -0.0035697 
347 1 49.9792 28.2831 27.5848 -0.00462253 0.0261259 -0.0226351 
359 2 50.6851 27.6276 26.9813 -0.0883403 0.0213976 0.0969165 
344 1 48.8353 28.7433 28.0421 0.000885667 -0.0212257 0.00680995 
336 1 51.1296 28.9362 28.276 0.018132 -0.0122742 -0.000573566 
358 2 54.5309 28.1336 28.6278 0.0161309 0.0516713 -0.025182 
334 1 48.7552 29.3032 29.3987 0.00943677 -0.00396934 0.00704432 
343 1 47.6848 30.1807 29.942 -0.03391 -0.0119908 -0.00565856 
330 1 51.0185 29.3489 29.7115 -0.00240665 -0.00792763 0.00596593 
550 1 42.1614 12.2286 34.9783 0.014129 -0.0167368 -0.0185533 
556 1 41.54 12.7283 32.5449 0.0016078 -0.00154717 -0.00971261 
568 2 41.719 12.5035 31.4548 -0.0046786 0.000646703 -0.0293161 
559 1 42.5687 12.6097 33.5481 0.0190721 -0.0199885 -0.00596106 
571 2 43.5334 12.6237 33.0566 -0.0760423 0.0582115 0.0921027 
335 1 53.3985 29.0357 30.356 0.00375945 -0.0190463 -0.0169706 
333 1 53.1619 30.0676 32.9567 -0.0296248 0.015846 0.0177908 
327 1 52.3677 30.3624 31.8158 -0.0108417 -0.0117001 0.0128728 
354 2 54.783 28.7664 33.4838 -0.0803323 -0.100793 0.0246881 
342 1 54.3858 29.4266 32.6063 -0.0170344 -0.00916687 0.0155192 
352 2 46.5293 31.2533 31.2102 0.0343652 -0.0425931 -0.00756342 
340 1 47.445 31.2112 30.9054 -0.0240095 -0.0280878 -0.00782936 
351 2 47.214 32.2858 33.3489 -0.0176942 0.0738627 -0.103945 
349 2 49.1696 31.1903 35.0694 0.0179164 -0.0479373 -0.0408111 
338 1 51.4315 30.1407 34.6021 0.0151601 0.0211393 0.00215499 
332 1 48.5562 31.1661 31.6958 0.0253587 -0.0189294 0.00130361 
339 1 48.2193 31.8902 32.961 0.031092 0.0124515 0.0306721 
326 1 49.6826 30.8377 31.4468 -0.0218487 -0.00641008 -0.00974937 
337 1 49.2598 31.3623 33.7994 -0.0135465 -0.0111116 -0.0244206 
331 1 50.6492 30.7773 33.4925 -0.0109057 -0.0371408 0.00385423 
328 1 49.979 29.9691 30.301 -0.0141831 -0.00687006 -0.00106401 
325 1 50.9607 31.0074 32.2211 0.0149007 0.0249791 -0.000412144 
329 1 52.108 29.5368 30.7592 -0.011449 0.00556339 -0.0035148 
341 1 52.768 29.9709 34.3412 -8.06095e-05 0.00755685 -0.00677181 
345 1 54.5799 29.0143 31.2342 -0.00268493 0.00152483 -0.030708 
353 2 53.2858 29.3501 35.2227 -0.104385 0.0223686 -0.0136103 
216 2 55.3007 28.2317 31.4373 0.00333421 -0.0614745 0.0197359 
350 2 51.1622 29.9132 35.6316 0.0286835 0.0058206 0.000359258 
569 2 36.8335 12.5662 32.9191 0.000146033 0.0781606 -0.00887471 
548 1 40.2697 12.2167 33.0221 0.00638556 -0.00222833 0.0110964 
282 2 78.3794 10.1388 -11.8837 -0.0621743 0.0464562 -0.0366918 
135 2 77.8285 9.94977 -11.1532 0.09484 0.0474814 0.0565788 
394 2 79.6497 3.6991 17.4289 -0.0099108 -0.0213246 0.0100546 
283 2 67.7478 -6.36637 18.5152 -0.0637172 -0.0977594 -0.0282167 
537 2 68.7321 0.221992 13.1222 0.0483996 0.0660871 0.0129779 
540 2 69.133 0.620089 13.2065 0.00135398 -0.0404842 0.0507271 
314 2 65.074 18.2589 -6.70976 0.003674 -0.0540248 0.0361656 
302 1 65.8772 18.8634 -6.17187 -0.000751672 -0.00135853 -0.00926581 
313 2 65.858 18.4647 -9.06173 -0.0238303 0.0418971 -0.105893 
295 1 66.9502 18.8956 -7.16191 0.0137149 0.00327217 0.0132992 
301 1 66.589 19.1286 -8.53988 0.00695818 0.00502683 0.0155709 
303 1 67.8156 18.6256 -9.16183 -1.41136e-05 -0.00541229 -0.00790994 
289 1 68.3489 19.4088 -6.39177 -0.00623 0.0028059 0.0294861 
296 1 68.7914 19.6574 -8.84902 0.0106852 0.0023608 0.0181697 
315 2 67.9265 18.1889 -10.1861 -0.0696057 0.0413973 0.0320683 
304 1 69.8515 19.3735 -9.75145 -0.0221189 -0.0264285 0.00949287 
290 1 68.9183 20.047 -7.48558 -0.00577411 -0.00428133 0.0259194 
307 1 71.1213 19.5326 -9.05986 -0.00515507 -0.016671 -0.019447 
316 2 69.4166 18.6735 -10.551 -0.0302701 0.127802 0.00665054 
298 1 71.4525 20.561 -7.93491 -0.0264989 -0.0156076 -0.0306285 
292 1 70.442 20.3601 -7.01151 -0.00136862 0.00456334 -0.0396433 
319 2 72.2724 19.6105 -9.30232 -0.0488927 -0.0858597 0.0530568 
320 2 73.7187 21.9351 -7.70606 0.0351979 -0.031785 0.0151447 
308 1 72.4935 21.5852 -7.51737 0.0106797 0.0071494 -0.0147439 
318 2 66.3981 19.6729 -2.48359 0.0172148 0.00942761 0.0421013 
317 2 65.4698 18.5197 -4.08182 0.0121711 0.0433705 -0.0900523 
305 1 66.0819 18.8359 -4.86523 0.0172477 -0.00590613 0.00244707 
306 1 67.3662 19.0309 -2.85747 0.0158137 0.000617732 -0.00267589 
322 2 69.54 21.175 -3.183 -0.048336 -0.110907 0.030277 
299 1 70.1381 19.63 -2.25478 -0.017486 0.0031924 -0.00794957 
310 1 70.3021 20.6122 -3.75313 -0.000890691 0.0131591 0.0129553 
297 1 67.4892 18.6321 -4.27639 -0.00287376 0.0204668 -0.00800944 
324 2 71.7741 22.4395 -3.5648 0.0491453 0.0681948 -0.0126996 
321 2 70.609 19.3769 -1.2092 -0.0354134 0.0171433 0.10456 
291 1 68.7308 19.2395 -5.04262 0.0152228 0.0112447 -0.00828557 
312 1 71.3866 21.5614 -4.04102 -0.0134138 -0.0259857 -0.0240364 
300 1 71.9455 20.9603 -5.3012 -0.00773549 -0.0111265 -0.0129779 