ITEM: TIMESTEP
840000
ITEM: NUMBER OF ATOMS
576
ITEM: BOX BOUNDS pp pp pp
-1.2000000000000000e+01 8.4000000000000000e+01
-1.2000000000000000e+01 3.6000000000000000e+01
-1.2000000000000000e+01 3.6000000000000000e+01
ITEM: ATOMS id type x y z vx vy vz 
360 2 11.9725 -11.066 3.89479 0.0134756 -0.0158983 -0.00755316 
459 2 -4.13005 9.12094 12.2136 -0.0219103 0.028346 0.116542 
33 2 7.54609 4.0914 9.41477 -0.000999631 -0.0484859 0.0295265 
457 2 -2.85744 11.4334 11.124 0.0434842 -0.0123734 -0.0184684 
455 1 -10.627 10.9359 8.92691 0.0138648 0.0258379 -0.0227199 
434 1 -6.67935 11.2501 10.6796 -0.0196161 -0.0145101 -0.000777553 
442 1 -9.04623 10.298 10.9517 0.00925966 -0.0192628 -0.00493766 
452 1 -10.2918 10.1205 10.1006 -0.00170963 -0.0235926 0.0151876 
436 1 -8.14281 11.4846 10.6339 0.00769466 0.0160369 -0.00798059 
440 1 -6.21292 10.1737 11.7069 0.0294878 -0.000220438 -0.00564259 
287 2 7.44479 4.33055 9.23286 -0.0149369 -0.0338372 -0.0456126 
445 1 -3.84538 11.0585 11.3674 0.0112453 0.00598818 -0.00673053 
467 2 -11.5219 10.4563 8.46239 -0.0352817 -0.0337895 0.00688834 
447 1 -4.6119 10.0162 11.9678 -0.0163666 -0.00418073 -0.000474048 
267 1 -6.96343 -11.7452 30.188 0.014619 0.00414263 -0.0120554 
378 1 -11.357 -10.4955 16.1483 -0.0290725 0.0219271 -0.00968904 
495 2 -10.5743 -10.9865 16.3355 -0.0612529 -0.0881711 0.0147539 
369 1 -11.9241 -9.12089 16.5127 -0.0176972 -0.00681175 0.0342759 
241 2 7.7884 9.42816 19.4617 0.00551429 0.0338873 0.0067849 
260 1 -6.82934 -11.7937 28.7355 -0.0242147 0.0214479 -0.0149759 
389 2 -11.3444 -8.86514 18.6242 0.064482 -0.0220564 0.0213967 
85 1 -4.71713 2.44181 14.9053 0.0230251 -0.00966351 0.0204041 
99 2 -4.50321 1.28605 15.0203 -0.0919163 0.0758288 0.0345293 
80 1 -7.5151 2.68523 14.7078 -0.0157215 -0.0116938 -0.0415531 
100 2 -8.12713 2.18482 13.8481 -0.0106083 -0.0762751 -0.0749626 
87 1 -6.33114 2.84111 15.2547 -0.00939356 0.00806096 -0.0173083 
448 1 -7.27806 9.09246 12.0364 0.0162378 -0.0284383 0.00440207 
271 1 -7.87214 -11.1283 26.5642 0.00701248 0.00822731 -0.00274776 
451 1 -8.73029 9.42614 12.0674 0.0143775 -0.0148135 -0.00413138 
139 2 11.56 -7.22974 24.2744 -0.0322659 0.0411721 0.00313192 
279 2 -7.99033 -11.8788 30.8833 -0.0201118 0.0376333 -0.0189979 
496 2 11.7358 -6.97511 21.7726 -0.0379345 -0.0652163 0.0218558 
463 2 -9.20002 9.41887 12.9926 -0.0269958 -0.0917869 0.0437036 
219 1 5.32021 11.5454 17.3176 -0.0129241 0.0285035 0.00905889 
227 1 3.08438 11.9359 16.1399 0.0117059 0.000127338 -0.00401086 
221 1 4.4568 11.4099 16.2911 -0.0171582 0.00292588 0.00166841 
240 1 2.64148 10.8688 14.2651 -0.010694 0.0131384 -0.0206048 
222 1 4.99842 10.8983 15.0306 -0.0135431 0.0145003 -0.00501181 
228 1 4.12349 10.3216 14.2482 -0.0193375 0.00359049 -0.000559575 
238 1 2.0646 11.6387 15.0496 0.00633864 -0.0104957 0.0210299 
236 1 4.84332 10.0503 12.9286 -0.0310975 -0.00695204 -0.00639122 
217 1 6.62439 11.071 17.2553 0.00692275 -0.0101646 0.0130861 
244 2 9.63203 8.22261 14.8178 -0.0383645 0.00245653 -0.0177274 
247 2 8.0915 8.35246 12.9251 0.0651001 0.0503047 0.0677344 
235 1 8.01191 8.71596 13.9426 -0.00742364 -0.0215002 0.00698103 
224 1 8.23419 9.78968 16.2689 0.0365648 0.0219967 -0.00636918 
218 1 7.11524 10.7611 15.9535 0.00547666 0.0137744 -0.025219 
220 1 6.53319 10.5521 14.8944 -0.0126159 0.0448849 0.0144422 
226 1 6.76757 9.62278 14.2174 0.000898518 0.014336 -0.009475 
239 1 6.03477 9.30987 12.981 -0.00514057 -0.0257079 0.0191749 
232 1 8.82978 9.002 14.9891 -0.0186356 0.000150007 -0.00643422 
252 2 1.94316 10.2392 13.4158 -0.0997188 -0.00826599 0.0089222 
229 1 8.27512 10.0724 18.6793 0.0369198 0.0147159 0.0136222 
223 1 7.67739 11.3781 18.4241 -0.00147709 0.0277196 -0.00138005 
280 2 -8.47784 -10.5519 28.7474 -0.00459103 -0.0063512 0.115384 
243 2 9.2091 8.337 17.7397 0.00390032 -0.0520371 0.0375148 
268 1 -7.88984 -11.1613 27.9998 -0.00635146 -0.0194244 -0.00081883 
231 1 8.68973 9.27461 17.4657 0.00431001 -0.0137207 -0.00485894 
251 2 3.91826 9.79149 12.4197 0.0797549 -0.0402581 0.0876684 
460 2 -7.11007 8.28024 12.8585 -0.0406622 0.0931697 0.00923428 
202 1 6.58211 23.1129 11.4228 0.0164257 -0.00676057 -0.00366911 
566 2 10.0045 35.4417 -7.81245 -0.0616546 0.0430726 -0.0123386 
570 2 9.00132 31.8633 -8.02266 0.0282639 -0.0124352 -0.0195681 
558 1 10.1116 31.7022 -8.15457 -0.00954597 -0.00572617 0.0230713 
561 1 10.8193 30.4033 -8.20283 -0.0126219 0.0220657 0.0128035 
554 1 10.6734 34.0074 -7.73953 0.0284463 0.0367968 0.0130372 
549 1 11.2327 32.7314 -7.75138 -0.00328359 -0.0236316 -0.00473603 
557 1 11.5763 34.8225 -7.36499 -0.0110285 0.0138333 -0.000299116 
468 2 -10.7186 13.5515 7.94881 -0.00557045 -0.0409904 0.0459514 
465 2 -7.25097 15.3927 7.46318 0.0626381 -0.0151239 -0.0697575 
456 1 -9.608 13.5932 8.25299 -0.0010493 0.00451897 -0.00171909 
433 1 -5.88231 12.3817 10.3961 -0.0046147 -0.00208698 -0.00526679 
435 1 -6.49665 13.7506 10.0844 -0.00336985 0.0291891 0.0177546 
443 1 -8.20819 15.2741 7.42838 0.00891421 0.00660963 0.00115606 
454 1 -8.12484 13.9782 8.07306 -0.0011242 -0.0156146 -0.0126264 
438 1 -8.61516 12.434 9.78422 -0.00609362 0.0140601 -0.00462723 
437 1 -7.78666 13.4948 9.56547 0.00544823 -0.0190727 -0.0237037 
444 1 -9.95722 12.4785 9.11548 -0.00587035 0.0143106 -0.0138703 
453 1 -9.10849 15.954 6.42918 0.00844276 -0.00132323 0.00452818 
462 2 -8.7146 16.1532 5.2454 0.0426708 -0.14347 -0.0163093 
450 1 -10.041 16.6442 6.86696 -0.0135558 -0.0440999 -0.00991146 
441 1 -5.77926 15.1591 10.0755 -0.0102745 0.0161666 -0.0144993 
461 2 -6.23025 15.8476 9.62043 0.11062 0.069205 0.102779 
439 1 -4.47261 12.3685 10.8182 0.00494717 0.0115606 0.0103559 
449 1 -4.46723 14.7375 10.2974 0.0440258 -0.0154264 0.0108242 
446 1 -3.68864 13.4458 10.6267 0.0105465 0.0188918 -0.00356651 
458 2 -2.84983 13.0495 11.1323 -0.027399 -0.0141131 -0.142767 
540 2 -3.98713 26.5154 10.6109 -0.00964563 0.0391559 0.0150398 
537 2 -4.29223 25.8966 10.603 0.0438649 0.0704772 0.0212405 
551 1 11.9009 29.8299 -8.44347 0.0103925 0.00637362 -0.0129283 
573 2 12.3027 28.7239 -8.56922 0.0572419 0.00331954 -0.039372 
249 2 1.80396 12.9921 16.9487 0.0689722 0.00502243 0.00226856 
237 1 2.74101 12.6815 17.3097 -0.00435322 0.0213671 0.0178502 
246 2 3.4249 13.6078 19.185 0.0303182 -0.00810374 0.100475 
234 1 3.59601 12.8714 18.3622 -0.000676203 -0.00740245 0.0140966 
198 1 11.6228 20.6373 14.1327 0.0112047 0.0159298 -0.00390912 
201 1 10.2944 21.0674 13.6916 0.0303794 0.0132474 -0.0117292 
214 2 10.3815 20.6162 12.7732 0.00887749 -0.0253438 -0.0677848 
225 1 4.95118 12.4526 18.5786 0.00610541 0.00613922 0.000372565 
183 1 11.706 22.94 14.9365 -0.0257883 0.0128505 0.0181264 
281 2 -4.46092 33.3995 31.7671 0.00870883 0.000587365 0.0245771 
133 2 11.4949 19.5097 14.4801 -0.0017734 0.0303243 -0.086132 
185 1 10.2883 23.1709 14.505 -0.0164342 -0.0106188 0.010646 
213 2 8.81923 21.6678 15.4541 -0.0422766 0.0134884 0.0964148 
191 1 9.45625 21.8501 14.5716 0.0151356 -0.00599869 0.0354855 
204 1 6.93892 23.4618 12.5898 -0.00432138 -0.0337888 -0.000397919 
215 2 7.16593 26.4066 15.6296 -0.00884603 -0.0151053 -0.0248495 
203 1 8.26164 24.6766 14.7248 0.00895233 0.0166371 0.0035675 
188 1 11.8557 25.7199 18.0466 0.0067005 0.0130139 -0.0198054 
211 2 9.79886 28.2909 16.6117 0.065439 0.0351112 -0.00671934 
200 1 7.99026 25.6989 15.7016 -0.01333 -0.0133688 0.0165325 
199 1 9.92498 27.2504 17.0945 0.00849043 -0.0234275 -0.00672219 
190 1 9.21266 25.9095 16.4582 0.0381674 0.00541951 -0.00181762 
182 1 11.735 25.2078 16.6199 0.0221138 -0.0259326 -0.0176917 
184 1 10.3182 25.3669 15.8581 -0.0522323 -0.0284434 -0.0034533 
186 1 9.69082 24.4027 14.7249 0.00118234 -0.0195764 0.00516907 
192 1 7.23745 24.3392 13.4569 -0.0143185 0.0340444 0.0395219 
212 2 7.47758 25.4467 13.2392 0.0172979 -0.0445484 0.0205047 
245 2 5.37992 13.7855 20.0074 0.00895895 -0.0600774 0.0211882 
196 1 10.7664 26.7392 18.284 0.00504887 -0.00237059 -0.00152331 
208 2 11.1792 27.3401 18.9947 -0.052364 0.0125553 -0.0217887 
288 2 -5.12861 33.2865 22.9317 -0.076892 -0.0402455 0.00802863 
275 1 -7.05774 34.2048 23.9388 -0.00248771 -0.0168506 -0.0239379 
285 2 -3.08851 30.1412 28.4548 -0.0475961 -0.0939286 -0.0890318 
272 1 -7.34355 35.1717 24.8189 -0.00688065 -0.0103005 -0.007628 
253 1 -5.56255 34.0263 29.0865 0.0291859 0.00179849 0.0218023 
254 1 -6.17446 34.8644 28.2937 -0.0184285 0.00250202 -0.00668174 
262 1 -7.25517 35.9377 26.0197 0.00984312 0.0150904 0.000238984 
256 1 -6.376 34.9521 26.9413 0.0150298 -0.00346504 0.0213468 
233 1 5.86058 12.8378 19.5301 0.00267349 -0.0142133 0.0030986 
261 1 -4.38143 31.9273 28.5905 0.00810402 0.018366 -0.00597188 
270 1 -3.74762 30.7862 27.9527 0.0155408 -0.0152359 0.00938674 
263 1 -4.5202 31.5621 26.0773 -0.0309987 -0.00816868 -0.00910994 
273 1 -4.30362 30.2007 26.7752 -0.022131 0.00569066 -0.0163893 
575 2 -4.16551 29.2988 26.3919 0.0787089 0.0884394 0.0534247 
274 1 -5.0136 31.6786 24.7299 -0.0259825 0.0200421 -0.0140823 
255 1 -5.2646 32.9768 28.1427 0.0109534 0.000256492 -0.0310387 
257 1 -5.33369 32.5797 26.8333 0.00378188 0.0161677 0.0215896 
276 1 -5.31135 32.877 23.9449 -0.0141042 -0.0343219 -0.0219366 
264 1 -5.69419 33.8526 24.9178 0.0039943 0.0212057 -0.017687 
258 1 -6.01811 33.7094 26.3436 -0.0127228 0.00240376 0.0160778 
286 2 -5.06485 31.0861 24.027 -0.0735824 -0.0299874 0.0486964 
277 2 -6.09982 35.3679 32.0418 -0.0174076 -0.102082 0.0439266 
259 1 -5.5471 34.4827 30.4563 -0.00115846 -0.00226581 0.0152411 
266 1 -4.66603 33.3401 30.7762 0.0227022 0.00785275 0.00701808 
265 1 -6.72194 35.1357 31.1686 0.0328341 -0.0087247 0.0194721 
210 2 -4.98521 24.5861 12.45 -0.173005 0.00660286 -0.00185457 
269 1 -4.22492 32.3524 29.916 -0.00793966 -0.00499338 -0.0116352 
390 2 -12.1153 35.136 12.8786 -0.0262306 -0.0192853 0.029725 
242 2 8.11178 12.5227 20.1687 0.00333335 -0.0526242 0.046329 
230 1 7.27531 12.395 19.5195 0.0211256 0.018003 -0.0247886 
357 2 1.14632 12.264 15.0206 -0.0175114 -0.0239541 0.0182099 
284 2 -4.15511 24.7969 12.4302 -0.133413 -0.0286534 0.0844102 
565 2 13.3746 -11.4295 -6.2624 0.0134769 -0.0184575 0.0215763 
278 2 25.8666 1.25025 5.09218 -0.0235855 0.040716 0.00396615 
431 2 25.5982 2.57417 9.04834 -0.0896919 -0.0385751 0.000806546 
97 2 17.8944 5.50452 -10.7063 0.074542 -0.0594473 -0.0756927 
79 1 18.5427 6.18728 -11.4464 -0.0129168 0.0283098 -0.0143825 
283 2 26.3092 1.71199 4.53592 -0.00314877 -0.02336 -0.0274645 
73 1 19.7614 7.03536 -10.7814 -0.0119207 0.00066641 -0.0217253 
92 1 22.0975 9.20671 -7.18494 0.0136653 0.00328814 -0.00754341 
77 1 21.9576 7.92297 -11.2216 0.0248781 -0.0151541 0.0044422 
75 1 21.0093 6.88253 -11.5752 -0.032158 0.00922111 0.0303001 
78 1 22.1566 8.52381 -9.80385 0.00564742 -0.00705307 0.0133433 
74 1 19.662 7.57367 -9.53174 0.0111207 0.00203059 -0.00512072 
355 2 18.4921 7.42399 -9.15679 0.0229513 0.0985757 -0.0195655 
76 1 20.8159 8.35942 -9.10387 -0.0193196 -0.00559321 0.00286844 
82 1 20.7643 8.5739 -7.72337 0.00183438 0.00148116 -0.0131178 
91 1 19.8722 8.15805 -6.42396 0.00221075 2.53767e-05 0.00243614 
88 1 19.7018 7.56515 -5.45235 0.0058543 -0.0237964 -0.012653 
103 2 19.3486 6.84327 -4.67065 0.0186432 0.00593463 0.000366378 
104 2 21.9269 9.8354 -6.49748 -0.0826943 -0.0359529 0.0654043 
84 1 23.3613 9.12832 -9.02775 -0.015995 -0.00985143 -0.012264 
95 1 23.4467 8.66433 -7.64146 -0.0062788 -0.00836534 -0.00905131 
94 1 24.0374 9.44237 -11.1641 -0.00595804 0.00416154 0.0176752 
107 2 23.9595 8.22281 -6.73563 0.0986308 0.0237579 -0.0111712 
96 1 24.6768 9.2381 -9.90288 -0.030673 0.00877926 0.00213538 
106 2 25.1007 9.37983 -8.91247 -0.00158562 -0.0602372 -0.0535028 
332 1 17.0409 -6.59256 4.58433 -0.0101584 0.00770507 -0.0334193 
326 1 16.2631 -7.82076 4.70527 0.00276107 0.00262891 0.00969888 
325 1 16.652 -8.9085 5.46598 0.007916 -0.0123386 0.0124773 
328 1 15.2097 -8.03437 3.76389 -0.0230152 -0.0239504 0.0256798 
334 1 14.7857 -7.04531 2.85305 -0.011772 0.00502944 -0.00275463 
327 1 16.5248 -10.2652 5.13901 -0.0396616 -0.0248816 0.00364232 
330 1 14.7872 -9.40175 3.79307 0.00688328 -0.0117919 0.00503375 
329 1 15.5142 -10.4924 4.26475 0.0197233 0.0170162 -0.0134716 
344 1 13.6746 -7.758 2.01382 0.00573415 -0.010156 -0.00260362 
347 1 12.7786 -8.77311 2.40954 0.0086699 -0.0146207 -0.0119162 
336 1 13.6536 -9.76363 3.06764 0.0208943 -0.00930347 0.0106014 
83 1 23.1774 8.24536 -11.8275 -0.00763944 0.00217553 -0.0229471 
335 1 15.016 -11.7822 4.38699 0.00724284 -0.0124284 -0.0248652 
348 1 13.0032 -10.896 3.76 0.0215749 -0.0095928 0.000222249 
331 1 17.669 -8.6254 6.57971 -0.0186715 0.0141321 0.0233736 
339 1 18.1816 -6.40253 5.46675 -0.00411864 -0.00080663 0.00394536 
337 1 18.2814 -7.38902 6.5005 -0.0163285 -0.0211012 0.0197611 
343 1 15.7796 -5.82721 2.55171 -0.00263794 -0.00700471 -8.15127e-05 
340 1 16.3223 -5.40325 3.76157 -0.00154229 -0.00098473 0.0208947 
356 2 13.3217 -7.10971 1.09923 0.0557444 0.00954965 0.0944068 
351 2 18.8319 -5.46836 5.78932 -0.0413412 -0.0101697 0.0129798 
417 1 27.5432 0.538444 2.14068 0.000503322 -0.0119336 -0.0101002 
250 2 27.8172 -2.08995 3.84079 0.074972 -0.101061 -0.0209155 
407 1 26.7441 -0.248403 3.49758 0.0192131 -0.0100924 -1.12304e-05 
399 1 27.1185 -1.49856 4.24098 0.0035678 0.0140678 -0.0200352 
408 1 31.8602 0.676294 0.844847 -0.0205655 -0.00501482 -0.017958 
136 2 33.3446 0.863554 -0.52891 0.0876881 -0.0179365 0.0634748 
98 2 17.6348 9.26908 2.67784 -0.0254412 0.0401012 0.0151715 
432 2 28.664 2.4048 3.23269 0.0123979 -0.0273927 -0.0376322 
414 1 28.5599 1.45608 2.33551 0.0166875 0.00473313 -0.00230717 
405 1 30.1076 1.45438 2.43764 0.0300835 0.0133229 0.00188088 
429 2 25.9933 -0.952006 2.72724 0.058013 0.20428 0.0435235 
418 1 31.2003 1.16693 1.70119 -0.00926196 0.0140969 -0.00461195 
430 2 31.6339 -0.108794 -0.937907 0.0435606 0.0249078 -0.0677011 
420 1 32.4883 0.20745 -0.180135 -0.0247292 0.0190333 0.0151652 
333 1 16.7963 -11.365 6.13446 0.0018347 0.00573222 -0.00206261 
567 2 15.846 -11.7715 -8.09266 0.130009 -0.0460892 0.00456035 
419 1 25.0903 1.85084 8.94605 0.0113316 -0.00472169 -0.0154399 
341 1 17.5253 -10.9199 7.29154 0.00196147 -0.00931284 0.00721489 
428 2 23.8859 2.04208 8.8806 -0.0806535 0.0149704 0.0328239 
416 1 24.9254 0.646608 9.43347 -0.0010209 0.00148749 0.0257356 
353 2 17.3067 -11.6026 8.22923 0.0265501 -0.0916193 0.000421249 
349 2 18.7932 -7.52764 7.35017 0.0747574 -0.1254 0.124408 
338 1 17.9185 -9.54446 7.48408 -0.0279891 0.00119502 -0.00231798 
350 2 18.3224 -9.26233 8.5335 0.040326 -0.0176596 0.0647441 
17 1 27.9005 -2.2575 11.6151 -0.0101889 0.0157734 -0.0105187 
412 1 24.475 -0.713465 11.0886 0.0165352 -0.0197376 -0.024823 
406 1 25.0585 -0.876808 9.83767 0.0210385 0.0232168 -0.0199443 
398 1 26.6551 -1.86892 11.0743 0.00430572 -0.00347801 -0.00623074 
402 1 27.0786 -1.06478 6.98281 0.00356215 0.0081351 -0.0306441 
400 1 26.8666 -0.965173 8.27074 0.0228887 0.0334617 -0.0141865 
426 2 28.2268 -1.32949 8.29373 0.00392096 -0.0222214 0.104863 
401 1 27.0672 -1.16342 5.75121 0.0149085 -0.0135551 0.0190012 
415 1 26.475 -1.31223 9.63947 -0.0127473 0.0154072 -0.0127442 
425 2 28.8588 -2.19092 11.1244 0.0320378 0.0572745 0.0852614 
553 1 13.6931 -12.0978 -7.00912 0.00723928 -0.0261246 -0.00951233 
424 2 23.5457 -0.0268817 11.3676 -0.0633718 0.102212 -0.00178042 
359 2 12.1891 -8.93823 1.42227 -0.0324455 -0.00307304 0.0116383 
404 1 25.562 -1.62922 11.8578 -0.00082502 -0.0139551 -0.00197802 
514 1 22.7671 -10.4917 17.8965 0.0227465 -0.0151318 -0.0256322 
508 1 23.7176 -9.62012 17.1479 0.0134379 -0.00564408 -0.0343906 
510 1 24.1012 -10.1793 15.9385 0.000552961 -0.00668022 -0.0135398 
506 1 24.1471 -8.26871 17.1975 0.0255904 0.021122 -0.00606232 
524 1 21.7467 -11.3955 17.1764 0.0048839 -0.000445441 -0.00574361 
314 2 19.4448 3.04708 16.0314 -0.0250651 -0.143485 0.0408296 
516 1 23.3162 -11.2449 15.221 0.0198714 -0.00263569 0.0216376 
528 1 24.0911 -11.9518 13.9975 0.0116387 -0.0296837 -0.00906992 
527 1 22.0645 -11.3476 15.987 0.0161734 -0.0115414 0.0164373 
526 1 25.2938 -11.6073 13.389 0.0189504 -0.00888562 0.0105941 
509 1 25.1809 -9.85031 15.1687 0.0109979 0.00561299 0.0115807 
507 1 25.3399 -8.49805 15.1324 -0.0191551 -0.00839176 0.000831318 
505 1 25.0382 -7.76439 16.3014 -0.027311 0.0299904 0.00935931 
515 1 25.7666 -10.4766 14.1993 0.000763457 0.0083449 -0.0144833 
511 1 24.9797 -6.41275 16.6741 0.0179277 0.0202099 0.0201956 
522 1 26.13 -8.21799 14.1691 0.00387368 0.00963345 0.0102399 
518 1 26.0995 -5.70167 16.3384 0.0142938 -0.00263631 0.00683881 
521 1 26.7487 -6.20559 15.3575 -0.00108692 0.00764894 0.0249596 
513 1 27.1956 -6.99614 14.302 0.00242035 -0.0187693 0.0217056 
533 2 28.2077 -6.85557 13.7841 0.0154382 0.0129668 -0.0406187 
525 1 26.6432 -9.32997 13.5657 -0.0250743 -0.00474461 -0.00108237 
534 2 27.4554 -9.0352 12.9169 -0.0773726 0.134158 0.0294535 
530 2 26.2769 -4.67081 16.2802 0.00452799 -0.000869709 -0.0376448 
411 1 25.4449 -2.11322 13.2471 0.0114145 -0.00584937 -0.00988891 
427 2 24.8706 -2.98237 13.6574 0.00313482 -0.0308192 0.00324018 
101 2 20.8932 4.78537 34.0352 0.0361724 0.00985344 -0.0339453 
397 1 28.0753 -2.9362 12.9015 0.00748463 0.00827134 0.00967805 
403 1 29.5292 -2.68962 13.4917 0.0299753 -0.00629788 0.00472738 
413 1 29.9503 -2.37867 14.7921 -0.00366515 0.0152063 0.0123181 
410 1 28.6861 -1.83041 15.6379 0.00775462 -0.0112106 -0.00207561 
409 1 26.6996 -3.14903 13.7274 -0.00979186 -0.0189169 -0.00979441 
423 2 26.634 -3.66014 14.716 -0.0312684 -0.0214194 0.000585943 
14 1 27.9207 -1.29779 16.2524 0.0321037 -0.00960849 -0.0147243 
422 2 27.9904 -0.362459 16.7905 -0.127 -0.0518734 -0.0874735 
517 1 23.8576 -5.71396 17.2767 0.0180913 0.0123783 -0.0176961 
529 2 23.4829 -4.86578 16.8506 0.0286778 -0.00556753 -0.0136171 
29 2 30.7951 -2.44324 15.4188 -0.0610204 -0.00225778 0.0941067 
93 1 23.0589 7.75095 34.915 -0.00333805 -0.00576503 0.0139889 
127 1 12.2357 -6.5109 22.5268 -0.0145104 -0.00516684 -0.00219959 
124 1 12.2741 -6.47249 23.8726 -0.00701791 -0.00988417 -0.00854219 
535 2 21.173 -10.2984 19.2379 0.0393739 -0.0391743 0.0483783 
523 1 22.2939 -10.0174 19.0876 0.00229609 0.0187324 0.0122056 
512 1 23.65 -7.67033 18.8007 0.0174003 0.0146174 0.018115 
519 1 23.3371 -6.25459 18.5468 -0.0156509 -0.00296536 0.00204192 
520 1 22.9408 -8.76179 19.3383 -0.00500433 0.0240118 0.00990628 
531 2 22.9245 -5.78973 19.4034 -0.0244077 0.028261 0.0127546 
118 1 13.1732 -5.64971 22.1524 -0.014288 -0.00238213 -0.00266496 
112 1 14.1891 -4.76165 22.9304 -0.0024157 0.0203928 -0.0152142 
140 2 14.1676 -6.41165 20.8073 -0.0470239 0.01929 -0.00742319 
128 1 13.3829 -5.65208 20.6669 0.000527725 -0.0125852 -0.0189585 
131 1 13.3086 -4.12082 20.4776 -0.0156594 0.0137886 -0.0104441 
143 2 13.2378 -3.66376 19.4692 -0.0837301 -0.024532 0.0170989 
114 1 14.946 -4.3289 22.127 -0.0396154 0.0105551 0.00895992 
120 1 14.5096 -3.47471 20.9835 0.0162329 0.000535249 -0.00645611 
132 1 15.5693 -3.15717 20.1579 0.00920726 0.00125926 0.00829367 
130 1 17.196 -3.19812 20.439 -0.0224983 0.0273319 -0.00720849 
119 1 17.4289 -3.58633 21.7897 -0.0162929 -0.018492 -0.0135627 
113 1 16.2354 -4.24719 22.3857 -0.0228326 -0.00477899 -0.00816025 
142 2 18.0658 -2.64541 19.9832 -0.0328512 0.0323584 -0.101017 
129 1 18.5066 -2.86546 22.627 -0.0186113 0.0123132 -0.0193136 
141 2 19.0421 -1.89898 22.7146 -0.0176175 -0.0622341 -0.0805731 
116 1 13.3566 -5.82657 24.8321 -0.0145699 -0.0120437 0.0317648 
123 1 13.7866 -6.5316 26.1463 0.0288572 0.0148121 0.00844552 
121 1 14.2917 -5.52256 27.0161 0.00229446 -0.00894105 -0.00196635 
134 2 16.9145 -5.04711 27.9288 0.0715167 0.0445841 0.0386128 
115 1 15.6872 -5.34618 26.3813 -0.0220703 0.00941008 0.000486978 
110 1 14.4215 -5.20812 24.3954 -0.0244672 0.021655 -0.000418155 
109 1 15.7442 -5.0784 24.8316 -0.00629224 -0.0169039 -0.0157862 
122 1 16.9253 -5.04378 26.8341 0.00341827 0.0112352 0.0224451 
111 1 16.6801 -4.63076 23.8264 0.0105574 -0.0134979 0.0307735 
137 2 18.282 -3.71448 26.3451 0.0324227 -0.0696623 -0.083716 
125 1 17.5857 -4.40245 25.8997 -0.040184 0.00904219 -0.00426451 
117 1 17.6467 -4.55043 24.4992 0.0100543 0.00919422 0.00781048 
126 1 18.4296 -3.5697 23.8126 -0.00290284 -0.0175723 -0.0232038 
138 2 19.3345 -3.68138 24.3948 -0.00919383 -0.0529171 0.0664668 
86 1 18.7912 5.93814 35.0471 0.000813243 0.0214591 -0.0158105 
90 1 22.2018 6.92151 34.3092 -0.00914493 -0.018574 0.0373292 
81 1 21.2774 6.10121 35.1636 0.0127367 0.00837251 -0.000985432 
102 2 22.4791 6.63081 33.269 0.0995984 -0.0523991 0.0266331 
89 1 20.0268 5.41615 34.6279 -0.00159112 -0.0192428 -0.0150593 
564 1 14.8635 29.465 -8.10537 0.0258505 7.3978e-05 -0.0113134 
562 1 15.304 28.3222 -8.45297 0.027008 -0.000812207 -0.019644 
421 2 14.6329 27.6457 -7.82167 -0.0935148 0.0432562 0.0142104 
576 2 15.7521 28.3424 -9.56642 -0.0329909 0.0327456 0.0721745 
342 1 16.1492 35.4599 6.22142 0.0279485 -0.0245574 -0.0276737 
547 1 12.8776 34.7546 -6.76388 -0.0301712 0.00551529 -0.0109888 
545 1 13.1849 30.9577 -8.17187 0.00952008 0.0201893 -0.00579125 
543 1 12.5537 32.1909 -7.83791 0.00228411 -0.010172 -0.0127134 
541 1 13.3629 33.1382 -6.65443 -0.00738567 -0.0352241 0.0241079 
542 1 14.821 33.1271 -7.09357 -0.0131128 0.00901596 0.00485265 
560 1 17.8654 31.1491 -6.04408 0.0284548 0.0186642 -0.0295861 
555 1 15.6563 34.4813 -6.85561 -0.00834841 -0.026064 -0.0127366 
548 1 15.1112 35.6752 -7.28103 -0.0114042 -0.00800218 0.023529 
544 1 15.5853 31.9609 -6.97426 -0.0154636 -0.00576714 -0.00447716 
546 1 14.6203 30.9255 -7.88264 -0.010748 0.00463477 0.00748466 
559 1 17.3239 33.0346 -7.85165 -0.0080049 0.0111821 0.00949457 
556 1 17.1945 34.2712 -7.02504 -0.00475311 0.00455374 -0.0189659 
568 2 17.8906 34.9772 -6.69818 -0.016979 0.00660768 0.0344789 
177 2 20.125 29.2276 -4.00589 -0.048046 -0.0103749 -0.076988 
572 2 19.0707 31.8606 -4.48245 0.0403633 0.00361895 0.0458289 
552 1 19.0837 30.8285 -5.25435 -0.0149872 0.00457099 0.00520199 
550 1 17.0314 31.7734 -7.01094 -0.0218485 -0.0288464 -0.0101007 
569 2 13.3863 32.8944 -5.53143 0.125518 0.00956394 0.0385276 
571 2 17.3014 33.6224 -8.76047 -0.0308118 -0.0305571 0.0909088 
563 1 19.0287 29.6307 -4.45101 0.00666648 0.00750318 -0.00569004 
532 2 20.1866 16.494 6.18928 -0.0597015 -0.0604818 -0.0538266 
464 2 25.1174 18.3093 9.94347 -0.0866227 -0.0398388 0.0632345 
64 2 24.2949 18.9895 10.1741 0.0262428 -0.0383989 0.00264489 
354 2 16.4763 35.0044 7.17983 0.026349 -0.0369437 -0.0145754 
346 1 13.83 35.9624 3.51349 0.0122064 0.0196514 -0.0100603 
216 2 15.4467 34.3076 4.39261 0.0709718 -0.0331356 0.0244187 
358 2 13.3236 34.8836 3.20229 0.138457 -0.0165109 0.052843 
345 1 15.8408 35.1464 4.85875 0.00718581 0.0125929 -0.0261455 
195 1 13.2769 25.8755 18.4898 0.0125322 0.0153302 -0.000532931 
206 2 14.842 22.5822 17.2065 -0.0600634 0.0483673 -0.0303578 
209 2 14.7416 21.0907 15.6382 -0.0207677 -0.00149001 0.0461624 
194 1 14.1957 22.7178 16.1898 0.00279699 0.0159168 0.0145493 
187 1 13.5414 23.9693 16.6659 0.0062329 -0.00551482 0.0130195 
197 1 13.7153 21.6507 15.4402 0.00325841 0.01114 -0.016009 
205 2 15.2961 24.7357 17.7307 0.0538272 0.0889077 0.0441425 
193 1 14.1904 24.6977 18.2068 0.0145327 -0.0109507 -0.0131529 
207 2 13.9183 23.678 18.338 -0.0164738 0.0350662 0.107026 
181 1 12.2678 24.0476 15.8763 0.00253316 -0.00971371 -0.00265811 
538 2 25.8145 35.9225 12.495 -0.03291 -0.0349044 -0.0810507 
189 1 12.568 21.7581 14.6077 0.00450025 0.0116274 0.0053022 
536 2 21.5857 35.7754 18.0309 -0.0315324 -0.0260852 0.0105393 
282 2 42.2241 -4.66733 -0.913502 0.0161029 -0.0119749 0.0416702 
135 2 43.0105 -5.12095 -1.3907 -0.0427799 0.130547 0.0309746 
144 2 44.4947 2.49609 22.1891 0.0342294 0.047319 0.0676386 
394 2 45.0472 2.97655 23.107 0.0479778 0.0644808 -0.0800431 
62 2 47.5749 25.5777 3.42664 -0.0277313 -0.0298595 -0.015822 
65 2 47.3367 27.736 1.40658 0.0573885 0.042187 0.00703474 
50 1 46.2792 28.0451 3.50599 -0.014863 -0.0111391 -0.0048762 
66 2 48.3663 26.0876 1.01806 0.0460088 -0.0101645 0.00210399 
53 1 46.6925 27.3625 2.27846 0.0211282 0.00841401 -0.00373189 
45 1 47.855 26.3659 2.81827 0.00400729 0.0234905 0.00412357 
43 1 47.0853 29.0589 4.31805 -0.00185598 -0.0513744 -0.0172777 
47 1 48.9095 25.5887 1.9198 0.00250546 0.00645876 0.00939478 
69 2 50.1068 23.1605 5.39971 0.0314432 -0.0532415 0.0343463 
37 1 48.2551 28.1648 4.67345 -0.0124777 0.00997431 0.00126702 
54 1 50.3472 24.2595 5.49466 -0.030753 0.00113274 0.028688 
57 1 49.5186 24.8976 2.93648 0.00507701 -0.00291695 0.014381 
58 1 49.9114 25.0777 4.48043 0.00280965 -0.00435947 -0.00663942 
39 1 48.3239 27.0677 4.09304 0.00673901 -0.0281523 -0.0112983 
41 1 49.3049 26.3819 4.9651 -0.0550392 0.01515 0.0296063 
42 1 49.6784 26.9227 6.32018 -0.00775144 0.0208768 0.00176057 
38 1 48.7394 29.0521 5.65605 0.0117494 0.0375838 0.0183117 
49 1 47.1671 30.4203 4.52136 0.00563454 0.0130546 -0.0300277 
61 2 47.0977 31.2441 3.98714 -0.0376639 -0.02103 0.0363086 
44 1 48.0863 30.3965 5.67995 -0.0194439 -0.0302527 0.0191802 
60 1 50.9564 24.7622 6.6059 -0.00945622 -0.00240722 -0.0237084 
67 2 50.5369 30.5668 9.11353 -0.151108 -0.062652 0.0435389 
55 1 50.3449 30.1307 8.27084 0.021402 -0.00529182 0.00111984 
68 2 49.9948 27.5743 10.0981 0.0613605 0.044513 -0.0563129 
70 2 50.9361 24.0774 7.40691 -0.0324926 -0.071058 0.0225777 
48 1 50.6355 26.1182 6.96344 0.00833331 0.0105006 -0.00316809 
40 1 49.5484 28.3263 6.60465 0.0207318 -0.00560241 -0.0159102 
56 1 50.4233 26.3492 8.49104 0.0344718 0.0151496 -0.0012652 
72 2 50.4728 25.5003 9.27091 -0.0327934 -0.00277545 0.03328 
46 1 49.7966 28.8015 8.093 0.0348712 -0.0162982 0.0115622 
59 1 50.3456 27.4694 8.8328 -0.0060377 -0.025407 0.0202198 
52 1 50.0005 30.749 7.03424 0.000302583 0.00844332 -0.0186195 
63 2 49.6807 31.7917 5.25584 -0.0873695 -0.046066 -0.00919035 
51 1 49.399 31.2091 6.00558 -0.0180977 0.011949 0.0182708 
352 2 59.1957 28.0959 10.8465 -0.124865 -0.0568699 0.0215335 
574 2 58.4171 28.5543 10.4621 -0.00277047 0.0453909 -0.0254694 
179 2 49.8913 28.2369 15.187 0.0440656 -0.137689 0.0437695 
539 2 49.021 28.019 15.0288 0.0173065 0.0208435 0.00334598 
176 2 67.5174 -4.06986 -3.44212 -0.0198729 -0.0429712 -0.0276248 
248 2 67.7186 -4.34907 -2.58588 0.0625143 -0.0440214 0.0154644 
396 2 81.6759 -10.6547 10.9087 0.00556967 -0.0190246 0.0447674 
384 1 82.1622 -10.0678 11.7536 0.00168031 -0.0202917 0.0173125 
395 2 79.7103 -9.52749 11.165 0.0345988 0.0519501 0.0442649 
178 2 79.6155 -12.0884 9.3406 0.0109817 -0.0245581 -0.00295187 
383 1 80.0703 -8.53777 11.7365 0.0185336 0.0263052 -0.0223937 
392 2 78.3459 -7.36683 12.9059 0.0481229 -0.00551185 0.027171 
386 2 82.9497 -7.37219 19.4311 -0.0421335 -0.0668526 0.0258095 
377 1 83.8303 -8.69147 17.8926 0.0122656 -0.000492493 -0.0139225 
365 1 82.48 -9.12722 14.3431 0.00271217 0.00722998 -0.0153218 
371 1 82.922 -10.5531 14.0394 0.0138693 -0.0081897 0.0270881 
382 1 83.193 -10.7364 12.4709 0.0004316 0.0153245 0.0142358 
372 1 81.2594 -9.00971 12.283 0.0387996 -0.00854465 -0.0160856 
366 1 81.4928 -8.50773 13.7343 -0.0479502 0.0161366 0.017055 
364 1 81.0627 -7.28084 14.2315 -0.0198092 -0.00819744 -0.00497359 
393 2 83.2159 -11.8158 15.2752 -0.0404839 0.00626545 -0.0370563 
380 1 79.5449 -7.50082 12.6242 0.0136809 0.0261156 -0.0199079 
370 1 79.8129 -6.9288 13.9161 0.0121466 0.00340308 -0.0175176 
363 1 83.1051 -8.55734 15.555 0.0199893 -0.00517346 0.0130523 
361 1 82.3462 -7.568 15.9418 0.00714288 -0.0113751 0.0151007 
362 1 81.1064 -7.09113 15.5235 -0.0309644 -0.0235858 -0.00149555 
367 1 82.305 -6.89642 17.3407 -0.00215054 -0.0157602 -0.0136069 
374 1 82.9491 -7.68772 18.3275 -0.00195668 -0.0206525 -0.0121689 
385 2 67.6747 -6.2293 21.9254 0.0100799 -0.0271882 0.0436702 
379 1 78.8059 -4.54624 14.3979 -0.00598782 0.00811982 0.00563312 
391 2 79.5983 -3.80412 14.4762 0.103286 0.042247 -0.0350352 
376 1 79.1905 -5.80916 14.9493 0.0143152 -0.0264613 0.015469 
375 1 80.3937 -5.30981 17.1813 -0.010556 0.0227606 0.00845069 
373 1 81.4627 -5.84985 17.7646 -0.0152224 9.29565e-05 -0.00715486 
368 1 80.2909 -6.02467 15.8601 0.0257189 -0.0215077 -0.0146611 
388 2 79.5512 -4.76521 17.1216 -0.0336126 -0.0161347 -0.0265926 
387 2 81.8138 -5.84067 18.8304 0.0333124 -0.00698098 0.0340922 
381 1 83.9354 -10.9949 15.0107 -0.00783581 0.00424017 0.0253793 
479 1 76.3533 30.0269 5.08219 -0.00155483 0.0110043 -0.00443529 
497 2 74.0948 30.4421 5.59129 0.0472083 -0.111772 0.0705964 
474 1 74.9287 29.7436 5.18091 -0.0198124 0.00347931 0.00146032 
477 1 76.7379 27.271 5.13408 -0.0101946 -0.00951452 -0.0194628 
498 2 77.6488 26.2571 7.0385 -0.0329594 -0.09616 0.00241781 
482 1 79.0716 26.9624 6.0424 -0.00880957 0.0300897 -0.00581164 
485 1 77.7332 26.5572 6.04838 -0.0209747 -0.00385593 0.0324394 
475 1 79.4755 28.0119 5.05749 -0.0334507 -0.0077765 0.0290384 
494 2 79.8219 26.7635 6.75441 -0.0310964 0.0333377 -0.0329452 
471 1 77.334 28.7447 5.22583 -0.0247122 -0.00597502 -0.00658389 
469 1 78.5667 28.9488 4.92618 0.0203133 -0.00549834 -0.0225629 
108 2 80.5887 27.6974 4.94839 -0.016943 0.00249324 -0.109692 
473 1 75.0688 33.1441 6.20767 -0.00563989 -0.00884948 -0.0116369 
472 1 76.2154 32.3783 6.29937 0.018014 0.00998343 0.0304209 
470 1 77.0218 31.1778 5.32605 0.00955855 0.0185048 -0.035074 
483 1 80.5739 30.2089 4.2001 -0.0171275 -0.0181203 0.0205387 
493 2 81.4468 29.5153 4.05715 -0.0117411 -0.0712852 0.0703932 
481 1 79.2816 30.2342 4.42855 -0.00681039 -0.016626 0.0056809 
476 1 78.4334 31.3126 5.30408 -0.0113621 -0.0132653 0.00693622 
466 2 70.9679 15.8757 4.98746 -0.0660233 0.0165846 -0.0586629 
105 2 70.8956 15.4424 5.74826 0.102139 0.0488414 -0.0352011 
170 2 80.3266 27.5973 11.5604 -0.0323383 0.0362212 -0.000803432 
502 2 74.2293 32.7369 11.25 0.124719 -0.068857 0.0424641 
500 2 73.4118 28.3381 4.97595 -0.0362779 0.0571214 -0.0207753 
501 2 74.6197 26.4109 4.5823 -0.0862972 0.00777691 -0.116624 
491 1 74.604 28.4204 4.86148 -0.00651983 0.0212046 -0.0180227 
488 1 75.4205 27.1837 4.84313 0.0130134 -0.0024393 0.000427133 
173 2 81.8305 27.5648 9.46789 0.00103268 -0.0938332 -0.0314632 
158 1 80.196 28.4571 10.8345 -0.0147514 0.0056715 -0.00896001 