ITEM: TIMESTEP
990000
ITEM: NUMBER OF ATOMS
576
ITEM: BOX BOUNDS pp pp pp
-1.2000000000000000e+01 8.4000000000000000e+01
-1.2000000000000000e+01 3.6000000000000000e+01
-1.2000000000000000e+01 3.6000000000000000e+01
ITEM: ATOMS id type x y z vx vy vz 
136 2 -3.50983 10.529 7.22192 0.121396 -0.0138461 0.0276611 
114 1 -11.3433 0.0390382 -7.77511 -0.0115831 -3.6639e-05 -0.00587044 
131 1 -9.2647 -0.230259 -9.35589 -0.0295031 -0.00401106 -0.0249366 
143 2 -8.18366 -0.26801 -9.48995 0.00940136 0.0425515 -0.0270544 
120 1 -10.0077 -0.304605 -7.93002 0.0172893 -0.0041234 -0.0100421 
424 2 -0.545266 11.9764 2.23159 0.0664692 0.0425468 -0.0321937 
132 1 -9.68134 -0.497007 -6.64086 -0.0109587 -0.00291699 -0.00823445 
118 1 -11.4425 0.149371 -10.3303 -0.0168176 0.0133498 0.0149751 
420 1 -3.53011 11.6896 7.15131 0.00891013 0.0100187 -0.00956003 
128 1 -10.0336 -0.287795 -10.4192 0.0154739 -0.0093851 -0.00541395 
140 2 -9.92605 -0.532758 -11.4604 0.0749857 0.00308876 0.0426024 
7 1 2.36752 -5.76016 0.883541 -0.0284491 0.00240801 0.0214627 
3 1 5.69794 -6.99474 0.209516 -0.00906809 0.0201111 -0.0106242 
2 1 5.64799 -5.73335 -0.362866 -0.00342814 0.0126256 -0.000906133 
27 2 1.5293 -5.00788 0.978304 0.0146805 0.00315474 0.0606389 
34 2 9.18513 -10.0564 -2.71801 -0.0850901 0.0131649 0.0368389 
12 1 8.84612 -6.6947 -2.8195 -0.00109292 0.0255619 0.0144556 
21 1 8.64723 -9.67131 -0.636286 0.0126882 0.0055276 -0.0277637 
18 1 7.67139 -9.16347 0.258366 0.0047571 0.00463368 0.00370921 
4 1 6.82274 -5.82923 -1.48115 -0.00357573 0.0142715 0.023711 
9 1 6.4627 -8.32621 -0.286904 -0.0146553 -0.00840349 0.00934513 
5 1 7.30123 -8.01958 -1.42382 -0.0119523 0.00807098 -0.00748359 
6 1 7.58467 -6.86628 -1.91267 -0.00731998 0.0128997 0.0145776 
11 1 8.23359 -8.94497 -1.64659 0.0198125 0.0166634 0.00283338 
22 1 9.0537 -9.03895 -2.63502 -0.00848168 -0.00826431 0.000615192 
24 1 9.6078 -8.02148 -3.20778 -0.0176668 -0.0133271 0.0130882 
36 2 10.3925 -7.9972 -3.89251 -0.0966454 -0.117775 0.0128538 
431 2 1.28022 12.3205 -2.68881 -0.0315982 0.10363 0.0601406 
130 1 -10.6025 -0.471935 -5.48707 -0.0344411 0.027959 -0.0280693 
142 2 -10.1386 -0.178827 -4.61541 -0.035477 0.0819503 0.0454639 
8 1 3.20733 -4.95538 0.0331421 0.0213888 -0.00777497 0.010534 
1 1 4.64372 -4.7998 -0.47848 -0.0123584 0.00648562 0.0294495 
28 2 4.49473 -4.07955 -2.14367 0.0287192 -0.00488752 0.0140683 
16 1 5.11129 -3.5924 -1.50055 -0.0192668 0.0160931 -0.00158143 
25 2 2.48448 -4.23379 -0.103936 0.0794603 0.114208 -0.0864056 
23 1 8.56748 -5.77472 -3.86491 -0.0110121 0.0104532 -0.0246984 
20 1 7.77584 -4.38766 -3.55033 -0.00651527 -0.0227149 -0.0030581 
10 1 7.18389 -4.60297 -2.10651 0.0122587 -0.0119379 0.01076 
31 2 7.42478 -3.09656 -0.75791 0.0202788 0.115839 0.0404848 
19 1 6.60663 -3.34205 -1.39748 -0.00251922 -0.00718746 0.0233729 
32 2 7.2025 -3.89032 -4.41739 0.0260499 -0.0638045 0.0517567 
418 1 -2.77461 11.8477 5.9215 -0.00135623 0.00560974 0.0139395 
14 1 8.22188 8.56656 2.63717 -0.00626875 -0.00224653 0.00611286 
423 2 5.03188 10.6747 0.913561 0.0194205 0.0555169 0.0294962 
415 1 0.806784 11.7882 4.00307 0.00628499 -0.0120524 -0.000568102 
425 2 2.93223 9.36813 3.73117 0.0264104 -0.00307184 -0.0304225 
79 1 -11.9517 -8.66517 2.57891 -0.0185786 0.0183908 0.0117551 
86 1 -11.3266 -9.91261 2.92998 -0.0215564 -0.0104037 0.00883174 
101 2 -10.4478 -9.64768 3.39088 -0.0366033 -0.0590694 0.0214633 
97 2 -11.5822 -7.77707 2.96892 0.0532451 -0.0048027 -0.0329757 
250 2 -2.19849 10.8894 5.35028 -0.0224968 -0.00827032 -0.039201 
89 1 -11.7101 -11.0307 1.96373 -0.00604297 -0.00698436 0.00830101 
15 1 3.18666 -7.16585 0.818574 -0.012789 0.0337537 -0.0127382 
13 1 4.46584 -7.43049 0.487986 -0.00400824 -0.0159755 0.000119386 
30 2 9.82842 -9.81975 -0.401992 -0.0618562 0.0560291 -0.0391766 
26 2 7.68093 -9.48452 1.42204 -0.0708211 -0.00554147 -0.044806 
422 2 8.40247 8.93003 1.53619 -0.0371968 -0.0610478 -0.0385836 
410 1 6.8622 8.26611 2.69825 0.0117828 -0.0055691 -0.0136875 
409 1 4.16919 11.1723 0.975136 -0.00554174 0.0209268 -0.00778033 
412 1 0.251967 11.95 1.68621 0.032002 0.000824778 0.000848999 
413 1 5.67654 8.81565 2.38033 0.012352 0.0264454 0.0418238 
398 1 1.70832 11.0686 2.91862 0.012513 0.0136523 0.0191529 
411 1 2.91421 11.7685 0.957276 0.026348 0.00925603 0.00220415 
397 1 3.77557 10.1675 2.05532 0.00810346 0.00579205 0.014053 
403 1 4.31121 8.76262 2.0931 0.000710621 -0.00210329 -0.00457114 
17 1 2.99106 10.282 3.19414 -0.0265372 -0.0050832 0.0142345 
29 2 3.72287 7.80054 1.94614 0.0520033 -0.0315655 -0.0161285 
404 1 1.70962 11.7171 1.79277 -0.00199222 0.0208297 0.0198559 
245 2 1.02412 -10.5492 -3.24702 0.00240761 -0.0112227 -0.053055 
233 1 1.11476 -11.7237 -3.26702 0.00672055 0.0203551 0.017071 
427 2 2.76433 11.8038 -0.345854 -0.0613612 -0.002792 0.101811 
64 2 9.61124 6.44178 19.7476 0.104951 -0.0456579 0.0471984 
170 2 10.2864 5.99372 19.403 0.0164251 -0.109331 -0.00261615 
249 2 -1.56428 32.965 -7.39999 -0.0319147 0.0277166 0.0313072 
234 1 -1.15689 33.9671 -5.4962 0.0108784 0.00509295 -0.0100442 
237 1 -0.947084 33.3755 -6.65402 0.0274263 0.00891549 0.0297915 
357 2 -1.34715 33.698 -9.32077 0.0184142 -0.0350098 0.0279743 
388 2 3.46439 33.6689 -11.8362 0.0527903 0.0640858 -0.0696879 
236 1 3.23098 33.7656 -10.6144 0.00313261 -0.0156035 -0.00666814 
239 1 4.31119 33.4597 -9.71536 -0.0059495 0.007694 -0.015686 
227 1 0.1349 33.4641 -7.56176 0.00207418 -0.0104917 0.0210473 
221 1 1.40112 33.8122 -7.15758 -0.00971763 0.00469848 0.0109093 
219 1 1.38754 34.2039 -6.03772 0.0158872 0.0118878 -0.00873714 
220 1 3.4337 33.5118 -7.28092 -0.00361825 0.00846059 -0.0144883 
222 1 2.59369 34.0064 -8.04697 -0.0178513 0.0278269 -0.00480865 
238 1 -0.349713 33.4365 -9.00788 0.00658269 0.0178634 0.0219965 
228 1 2.18212 34.0136 -9.57427 0.00803125 0.0344894 -0.013004 
240 1 0.85107 33.3947 -9.81101 -0.0146668 -0.0253928 -0.0172845 
252 2 1.13519 32.8123 -10.9173 0.0198713 0.0675891 -0.0126709 
226 1 4.57389 33.3525 -8.28936 -0.00496491 0.0144344 -0.0142207 
235 1 5.71912 32.8467 -7.37987 -0.00372351 -0.00725548 0.0135639 
251 2 5.29682 33.2458 -10.2171 -0.00291133 0.0125138 -0.0911553 
247 2 6.12084 32.3043 -8.05325 -0.0432033 0.0407462 0.080496 
407 1 -4.42759 13.8926 9.36112 0.0125862 -0.00414778 0.00501613 
419 1 0.985239 12.9309 -1.97993 -0.0333991 -0.0129552 0.0329546 
428 2 0.617769 13.8932 -2.47894 -0.079509 0.121335 -0.00700779 
416 1 0.579924 12.7219 -0.744737 0.0190704 0.00422534 -0.00929013 
246 2 -2.03656 34.3332 -5.11705 -0.0448678 0.0201679 0.0692208 
225 1 0.291918 34.3237 -5.20134 -0.0163437 -0.00390489 0.0118583 
406 1 0.228041 12.3723 0.473977 0.0106467 0.00568381 0.0105061 
399 1 -4.03443 14.6058 6.97876 -0.00532792 0.00423106 0.00308148 
230 1 0.823527 35.6033 -4.50335 0.00179883 -0.013835 0.00131503 
417 1 -4.3408 14.0227 10.7145 0.0060261 -0.0171819 -0.00843074 
217 1 2.56209 34.6197 -5.36063 0.0163591 0.0179263 0.0183451 
223 1 2.03231 34.7353 -4.10593 0.013908 0.00325776 -0.0117506 
241 2 2.94016 34.7258 -2.17652 0.0408066 0.024883 0.0621292 
229 1 3.1113 34.2774 -3.18467 0.00475822 0.00750559 -0.00236165 
218 1 3.62303 34.2283 -5.94843 -0.00809304 -0.00516325 0.000874687 
231 1 4.4491 33.5137 -3.45063 -0.00155088 0.0171794 -0.00432322 
243 2 5.05224 32.915 -2.99302 0.0400121 -0.0927123 0.0730209 
224 1 4.63513 33.6265 -5.14445 0.00679373 -0.0100214 0.00279191 
232 1 5.67198 32.9049 -5.92709 -0.00376992 -0.00394445 -0.00280742 
244 2 6.43438 32.3556 -5.13586 -0.0251269 0.0383663 0.00916061 
426 2 -0.657666 12.2252 6.58256 0.0414654 -0.0171941 0.0110072 
429 2 -3.73511 14.4568 11.45 -0.0242177 0.0112548 0.0899723 
242 2 1.96685 35.9046 -2.48675 0.00857096 0.0659855 -0.0424385 
408 1 -2.1783 13.0959 5.79297 -0.00889353 -0.0104403 -0.0085491 
402 1 -0.532612 12.8802 5.70785 -0.00818076 -0.0133431 -0.01722 
401 1 -2.7383 14.3402 6.46869 -0.0243529 -0.0174727 0.0343016 
400 1 0.0805354 12.4738 4.68943 0.00169921 -0.00111314 0.000145448 
68 2 -5.18033 20.4876 1.66923 0.0233843 0.00148393 -0.0253214 
430 2 -5.52211 12.5617 6.66193 0.0553644 -0.0320664 -0.0709235 
414 1 -4.71623 13.6053 8.02203 0.0092318 -0.0293157 -0.011328 
405 1 -4.7364 12.3385 7.29272 0.00441965 -0.0245941 0.021855 
552 1 4.59367 21.1341 30.4243 -0.0269503 -0.0169054 -0.00868731 
550 1 3.8695 19.0386 30.8004 0.0245833 -0.00375489 0.00899523 
162 1 -11.5485 23.9504 17.9942 0.0132923 0.0134059 -0.0025875 
174 2 -10.6273 23.5249 18.2432 0.0124381 -0.0105208 0.00603899 
559 1 5.10913 18.82 30.3449 -0.000939976 0.0106332 -0.0112426 
483 1 -10.8473 26.3106 17.066 -0.00201359 -0.0174431 0.0138826 
481 1 -11.4419 27.6654 16.7006 0.00625003 -0.0346941 -0.00435129 
493 2 -9.91455 26.2297 17.0036 -0.00241304 0.0320386 0.0371549 
566 2 2.44242 18.097 24.812 0.0275698 -0.0235225 -0.0941177 
563 1 5.90332 21.4791 29.7374 -0.000625681 -0.0226642 0.00818432 
432 2 4.17693 18.5985 22.1959 0.0624983 0.129643 0.00885426 
549 1 2.92161 18.8222 24.0619 -0.0225609 -0.00116513 0.000456158 
558 1 1.82199 19.6838 23.773 -0.0185531 -0.0123433 0.00902262 
557 1 4.18072 18.9371 23.2161 0.00530048 -0.000396933 -0.00652999 
471 1 -10.7801 29.402 17.8708 -0.00529887 0.0117475 -0.0208357 
469 1 -10.5238 28.7328 16.7177 -0.00914881 0.00952977 -0.0211347 
165 1 -11.6826 25.364 17.6042 0.025123 0.00781393 -0.011674 
477 1 -9.39815 29.9008 18.7142 0.0115478 -0.00425966 -0.0138882 
488 1 -9.75609 30.7993 19.6132 -0.0116682 -0.0197873 0.00584937 
491 1 -11.1477 31.4102 19.9551 -0.00935464 0.00704825 0.00504135 
501 2 -8.80115 30.8551 20.26 -0.0147083 -0.0769751 0.0296955 
500 2 -11.4136 31.7444 21.0354 -0.0470883 -0.0323524 -0.0863998 
177 2 6.64586 22.2103 30.1066 -0.0487176 -0.0747447 -0.0468235 
173 2 -11.2822 21.1735 17.3503 -4.08713e-05 -0.00895204 -0.0409582 
576 2 0.943196 16.7435 27.5094 0.00493316 -0.129735 -0.0553842 
572 2 5.72236 21.5306 28.5738 -0.00908057 0.0269816 0.0243384 
137 2 1.04417 26.4324 27.3732 -0.0296689 0.0591197 0.0214745 
532 2 2.10336 17.202 26.3089 0.0518088 -0.0473317 0.029403 
547 1 5.61516 20.3964 25.2835 -0.00240895 -0.0143484 0.00241861 
554 1 4.81252 19.8782 23.9235 -0.00334532 -0.00788016 -0.0287435 
541 1 4.55745 20.8481 26.0582 -0.0163159 0.0131944 0.010692 
542 1 4.84497 20.352 27.6347 0.0142048 -0.0286323 -0.0259242 
544 1 3.70029 20.0622 28.459 0.0177877 0.0304879 0.00353825 
561 1 0.784004 19.8042 24.9976 0.00358529 0.0133058 -0.00521036 
543 1 3.21816 21.5388 26.0097 -0.00424607 0.0143882 -0.0253234 
569 2 3.26512 22.6626 25.449 -0.0335428 0.0388352 0.010418 
564 1 2.05792 18.5147 28.0595 0.0191023 -0.000427196 0.000836846 
546 1 2.36763 19.845 27.5623 -0.00939862 0.00129978 0.00573692 
545 1 2.11199 20.7089 26.5773 0.0250816 -0.00290927 -0.00323581 
573 2 0.0137581 20.067 26.9003 0.0995266 -0.0586467 -0.0992263 
551 1 0.73572 20.3392 26.2581 -0.0225931 -0.0308819 0.0131375 
421 2 2.15248 18.6183 29.2018 0.0154863 -0.0694096 0.0460386 
562 1 1.484 17.5934 27.0631 0.0275022 0.0144394 0.00567346 
560 1 3.50103 20.2418 30.0698 -0.0116871 -0.00599408 0.0266003 
556 1 6.29888 18.9341 29.6456 0.011516 0.000536527 -0.0125677 
553 1 6.32527 19.0976 25.7483 -0.013704 0.0345961 -0.00249832 
565 2 7.08602 18.397 25.3693 -0.0150034 0.0752731 0.00915046 
567 2 7.69628 18.8005 27.7142 -0.0885427 -0.0761516 -0.0257693 
548 1 7.04127 19.2422 27.1469 -0.0177843 -0.00721906 -0.0117305 
555 1 6.07953 19.6802 28.3072 -0.0164708 0.00696877 0.0284092 
568 2 6.79549 17.9374 29.6787 -0.0844436 -0.135083 0.0711549 
394 2 -10.4447 21.1782 28.8864 -0.0460079 -0.0344989 -0.104434 
144 2 -11.277 20.9482 29.5141 0.0179266 0.0376916 -0.0231038 
571 2 3.08213 18.4461 31.2413 0.0713667 -0.0692253 -0.0835888 
479 1 -12.0098 29.6969 18.5618 -0.00276679 -0.0285141 -0.0202584 
189 1 35.1455 7.64799 5.62651 0.00709166 0.00501609 9.48084e-05 
191 1 34.5991 10.3736 4.54159 -0.0205359 -0.00243071 0.0145505 
133 2 32.7737 7.68282 5.55098 0.0524553 -0.0789032 0.0439138 
209 2 35.0786 5.75769 4.22679 0.0239211 -0.0046508 0.0581132 
213 2 34.3815 11.321 3.95879 -0.038921 0.0537005 -0.0331957 
198 1 33.8474 8.02438 5.27177 -0.00114036 0.00114027 0.000338439 
185 1 35.7722 10.001 5.29026 -0.0096056 -0.00853221 0.018084 
214 2 32.7911 9.59578 4.09615 0.0558265 0.0336616 -0.00283027 
197 1 35.6819 6.54293 4.69299 -0.00254384 -0.00602473 0.0174369 
201 1 33.7655 9.25215 4.47228 0.0147263 0.0180691 0.0150707 
574 2 12.2741 -11.9154 11.8491 -0.0250217 -0.0253216 0.0971086 
466 2 14.4504 9.31607 23.4079 0.0481905 -0.0338368 0.07129 
105 2 14.3402 9.86349 22.6148 -0.0403201 0.00277482 0.0494981 
71 2 13.5676 -7.1959 16.8391 0.010249 -0.0110463 -0.0699333 
504 2 14.2678 -6.43729 16.4151 0.0012804 0.0398198 -0.00592375 
385 2 19.3869 4.12978 13.9275 -0.02759 0.089427 -0.0633315 
570 2 19.4299 3.65067 14.3003 -0.0135057 0.0183557 -0.0302857 
494 2 22.9035 10.1538 31.9929 0.0217278 0.0755526 -0.0517698 
475 1 23.0616 9.70773 33.103 -0.0137112 -0.00985651 -0.00598603 
482 1 23.9915 8.98813 33.8564 0.0305106 0.00157842 0.0214753 
87 1 21.8439 8.95238 33.0649 -0.00832394 -0.00119843 -0.0136642 
99 2 21.6098 8.07978 33.7856 -0.0847843 0.0373904 -0.0083233 
80 1 20.9658 9.02203 32.1142 0.0318171 -0.0168734 -0.0300831 
85 1 20.0086 9.11302 30.9878 0.00719748 -0.0339855 -0.0273619 
100 2 19.8041 10.134 31.1011 -0.0942192 -0.023039 7.12822e-06 
485 1 24.6401 8.51213 34.8999 0.00391302 -0.0201745 0.0122239 
498 2 25.6694 7.97844 35.1548 0.0149011 -0.0312304 -0.100383 
108 2 24.3505 9.12453 35.743 0.0481087 -0.0408198 -0.0651962 
204 1 34.7744 15.1705 4.16507 -0.00138528 -0.0126842 0.0132316 
212 2 34.9353 16.0279 4.64205 0.0151543 -0.12428 0.105573 
176 2 30.4308 29.0687 11.6897 0.0243431 -0.0954255 0.0239889 
192 1 35.6386 12.8524 4.51845 0.00902031 0.0123281 0.00436619 
348 1 31.3291 23.9626 10.2752 0.0235949 0.0125578 -0.0203269 
360 2 31.2962 24.3134 9.29815 0.0813777 0.0138843 -0.049263 
358 2 33.4665 23.6997 10.6525 0.0236523 0.0602099 -0.0477765 
346 1 32.4001 23.8259 10.953 0.0156533 -0.00518264 0.00266321 
202 1 34.9672 14.1138 4.03319 -0.0093061 -0.011711 0.00986858 
347 1 29.0247 25.1151 10.5584 0.0143747 0.00985022 0.00307804 
336 1 30.0863 24.2635 11.0659 0.0172428 -0.00916075 0.00306139 
359 2 28.8273 25.3305 9.64433 0.0710427 0.0124995 0.0146821 
356 2 27.405 26.7319 11.4333 -0.174871 0.0254224 0.00561283 
344 1 28.145 25.8009 11.4433 -0.00682132 0.0019831 -0.00392427 
216 2 34.1723 22.5794 11.7875 0.0644048 0.0429448 -0.00032751 
349 2 29.5698 24.0878 18.643 -0.0387967 0.0387238 0.0642672 
329 1 31.3692 23.7513 13.2819 0.0287873 0.00100896 -0.000135764 
345 1 33.532 22.8592 12.6844 -0.0194979 0.00280533 -0.0128231 
342 1 33.7523 22.1579 14.0414 0.00739484 -0.00625669 -0.00747668 
354 2 34.6615 21.736 14.5008 -0.0461903 -0.0421071 0.0194766 
353 2 33.8907 22.8144 17.1938 0.0791643 -0.0294803 -0.00638188 
333 1 32.7703 22.6989 15.0216 0.00605516 -0.0141201 0.0236291 
341 1 32.9943 22.8371 16.475 0.00285927 0.00496205 0.00510857 
327 1 31.6207 23.2367 14.5509 0.00413535 0.00349128 0.00218095 
338 1 32.0251 23.1674 17.3205 0.000598234 -0.036507 -0.0160075 
332 1 29.3069 25.8643 15.9193 -0.0241603 0.00166674 0.012656 
328 1 29.4637 25.039 13.5843 -0.000955337 -0.0216131 -0.0248708 
334 1 28.4157 25.7955 12.8865 -0.0264355 -0.00108764 -0.0133854 
343 1 27.8979 26.7203 13.9469 -0.0151415 -0.00261216 0.00814122 
340 1 28.342 26.9373 15.2953 0.00545136 -0.022697 -0.00357053 
351 2 28.3801 25.5659 18.1612 0.0652589 -0.0329503 -0.0399187 
326 1 29.6218 24.6491 15.0379 -0.0115004 -0.00109114 0.00985601 
339 1 29.1771 25.2518 17.2956 -0.0186182 -0.0196568 -0.00413419 
330 1 30.3264 24.4144 12.5133 -0.00591633 -0.00595303 0.0170853 
337 1 29.5428 23.8901 17.5684 -0.00470485 0.000625166 0.0279647 
325 1 30.5455 23.4812 15.305 0.0226824 -0.00448376 0.00521676 
331 1 30.5999 23.2603 16.7957 -0.00483144 -0.0183774 -0.00428813 
248 2 31.0562 28.8723 12.3978 0.0696075 -0.0391437 -0.0355593 
335 1 32.3094 23.3372 12.4148 0.00334151 0.0293748 -0.000450305 
350 2 32.1396 23.7123 18.2505 0.0205269 0.0623342 0.00819225 
352 2 11.3524 35.7963 12.4153 -0.111485 0.100459 0.0379746 
206 2 37.3571 4.88872 4.6363 0.0628116 -0.0432825 -0.0577966 
282 2 53.2038 -10.2476 -1.86375 -0.00188736 0.0989902 0.1342 
459 2 52.0627 -10.1989 5.05599 -0.0121622 0.0564469 -0.0262568 
208 2 38.8697 6.0639 7.44418 0.0472403 0.0276584 0.00283546 
193 1 38.6623 6.41869 6.40367 0.00755082 0.02913 0.00549223 
187 1 37.2676 6.88518 6.18376 0.0255249 -0.0326205 -0.00093419 
184 1 38.2426 10.3276 5.21021 -0.00716752 -0.00763144 -0.00515232 
186 1 36.9084 10.726 5.22336 -0.0188282 0.0156762 -0.00504325 
190 1 39.0194 11.2965 4.40164 0.0170996 -0.00341345 -0.00751517 
182 1 38.3997 8.91567 5.3711 -0.0196879 -0.0245445 0.0035936 
195 1 39.8428 7.05121 5.46513 0.0128967 0.0276719 0.00933387 
188 1 39.63 8.26158 4.96018 0.00278079 0.00363946 0.00616359 
181 1 37.2911 8.37799 5.99355 -0.00870845 -0.0141056 0.00683031 
207 2 40.6639 6.35483 5.8483 -0.112376 0.0244762 -0.0228129 
211 2 41.58 9.0174 4.12211 -0.0518197 -0.0512887 0.0357761 
199 1 40.189 10.6494 4.32305 -0.00280566 0.00637349 -0.000670737 
196 1 40.5693 9.43637 4.47631 0.00175949 -0.00644626 0.00145045 
446 1 50.808 -11.9647 9.16733 -0.000813502 -0.00657294 0.0112043 
439 1 51.6657 -11.8148 7.99627 0.0039403 -0.00229238 -0.0175226 
194 1 36.9953 6.01527 4.841 0.0194252 0.0112558 0.00509112 
445 1 51.6259 -10.934 6.90088 -0.0202666 -0.00854464 -0.0353991 
447 1 52.1213 -11.1326 5.76113 0.0196314 -0.0143359 -0.0113641 
457 2 51.0646 -10.0991 7.11356 0.0791236 -0.0645775 -0.0287852 
458 2 49.8077 -11.446 9.19876 0.00690633 0.0762541 -0.0990557 
205 2 44.9444 8.71909 6.80144 0.0933352 0.0612725 0.0279502 
183 1 36.0252 8.74847 5.67504 -0.00254959 -0.0190747 -0.0021276 
135 2 53.1923 -9.83425 -1.22658 0.0845764 0.114183 0.0755353 
448 1 53.1056 35.4699 4.10619 -0.0257035 -0.00460969 0.0151055 
203 1 36.9339 12.2066 4.73622 0.00223593 -0.0143061 -0.00664349 
66 2 46.0456 20.3338 -11.2973 -0.0573178 -0.086654 0.0122802 
460 2 52.8988 36.0665 3.04968 -0.0133642 0.0217582 0.0523941 
200 1 38.3266 12.6227 4.16787 0.00169317 0.0120963 -0.0406067 
215 2 38.722 13.5119 3.9823 -0.0267664 -0.0786758 0.0344809 
467 2 55.5894 32.7754 3.6773 -0.0321104 0.00952227 0.0206939 
452 1 55.6208 32.7196 4.8262 -0.00510467 0.0132015 0.00626958 
451 1 53.9873 34.53 4.21168 -0.0330946 0.000658432 -0.0132838 
442 1 54.6795 33.8862 5.17356 0.0172681 0.00137931 -0.0173347 
463 2 54.5533 34.3922 3.13805 0.0674247 -0.0382806 0.0541955 
464 2 50.767 35.7451 10.9138 0.0372353 -0.00757906 -0.0524257 
436 1 54.2259 34.2854 6.55831 0.0284095 -0.0139058 -0.0188113 
441 1 52.7906 34.8898 10.2274 -0.00578835 -0.00934613 -0.0195022 
437 1 54.0689 33.3286 8.82559 -0.0274842 0.00112716 0.0126877 
433 1 52.4353 35.0123 7.86351 0.014492 0.00225292 -0.003666 
438 1 54.6853 33.4367 7.62398 0.0179814 0.00552646 -0.0152231 
435 1 52.7649 33.9796 9.08225 0.0190921 -0.00809024 0.00668582 
434 1 52.7626 34.7401 6.63499 -0.0226802 0.00469301 -7.65176e-05 
449 1 51.3511 35.2969 10.2867 0.0208126 -0.00654296 0.000978972 
461 2 53.6051 34.6478 10.9543 0.0413633 0.0721547 0.0265563 
465 2 54.1572 30.6025 9.97237 0.0522916 0.0435616 0.0118959 
440 1 52.6665 35.5855 5.43482 0.0156284 0.000136178 -0.0129239 
443 1 55.178 31.0307 10.4304 0.0270778 -0.00249121 -0.0112515 
468 2 56.0284 30.3987 8.31842 -6.14322e-05 -0.0832289 0.0133001 
454 1 54.9491 32.1426 9.42483 0.0177567 0.0179322 0.0157127 
456 1 55.6443 31.5558 8.32772 0.0125197 -0.0247847 -0.0201013 
444 1 55.9239 32.5943 7.42394 0.010074 0.000308358 0.00156626 
453 1 56.2352 31.4353 11.4573 -0.0215832 0.000831471 0.00633446 
455 1 56.49 32.6103 5.86842 0.0111618 0.0227346 0.00935676 
98 2 39.696 29.8397 14.0022 0.0251111 0.0285521 0.0149538 
52 1 40.6901 21.1946 29.086 -0.013072 0.0174669 0.0117506 
67 2 41.2721 19.1865 28.8017 0.00786506 -0.101754 0.0039801 
63 2 39.6051 22.9487 30.2617 -0.030216 0.0149596 0.0329103 
51 1 40.5068 22.2245 30.2032 -0.011413 -0.00645804 -0.022545 
55 1 41.546 19.9074 29.4552 -0.0157988 0.0160612 0.00172079 
72 2 41.5995 17.622 30.8647 -0.0191724 0.0377351 0.00171185 
48 1 44.5642 17.4668 32.42 -0.0226887 -0.0194222 0.00390893 
44 1 41.8359 22.7347 30.7064 0.0162748 -0.0107469 -0.0219788 
59 1 42.3058 18.4679 31.1746 0.014811 0.00829503 0.00870304 
60 1 45.6161 17.8351 33.4063 0.00635327 0.0024406 0.00238518 
46 1 42.017 19.779 30.9149 0.0177812 -0.0275766 -0.00398988 
40 1 42.9543 20.6425 31.6995 0.0137634 -0.0101767 -0.000331955 
56 1 43.6082 18.4059 32.1881 0.00702256 0.00262469 -0.00901316 
38 1 42.8435 21.893 31.6529 -0.00586011 -0.0081087 0.00720358 
42 1 43.7691 19.7476 32.639 -0.00462221 -0.0146211 0.0140152 
37 1 43.855 22.8391 32.4061 -0.0192402 -0.00157723 -0.00729789 
39 1 44.7746 22.1233 33.3534 -0.0189168 0.0048441 0.00893242 
41 1 44.6304 20.6168 33.3811 -3.49465e-05 0.00923824 0.00972963 
54 1 45.9549 18.6119 34.5598 0.0109078 0.0185103 -0.00543507 
45 1 45.7353 22.7137 34.2325 -0.00931644 0.0118214 0.0144031 
58 1 45.2066 19.8106 34.6139 0.0152028 0.0111614 -0.00857973 
47 1 45.8205 21.7265 35.2219 -0.0129118 -0.00876572 0.00856893 
57 1 45.718 20.6236 35.7576 -0.00892108 -0.00602744 -0.00453379 
69 2 46.5251 18.1213 35.4771 0.0781804 -0.0224941 -0.0583139 
65 2 45.8396 23.8206 34.0253 0.0541624 0.0391022 -0.0864945 
62 2 44.1562 27.2669 31.5341 0.0207208 0.0553665 -0.0478477 
49 1 42.2843 23.9301 31.1117 0.019896 0.00144894 0.0112804 
50 1 43.817 25.3887 32.0226 -0.00673522 0.00703638 0.00198857 
53 1 43.9501 26.5236 32.2678 0.0170946 0.00531614 -0.00725126 
61 2 43.4999 26.944 33.1481 0.00722915 -0.0944086 -0.0102216 
43 1 43.4541 24.1654 32.3053 0.0102163 0.00183404 0.0249994 
462 2 58.0551 32.0418 11.9552 0.0647307 -0.141939 0.0169872 
450 1 57.3853 31.1587 12.2654 -0.00192749 -0.000454267 0.0250334 
121 1 79.3634 -0.51114 -9.57261 -0.0127431 -0.00494476 0.000564704 
139 2 78.3227 -0.946324 -9.6694 0.00491158 0.0100149 0.00121589 
115 1 80.273 -0.750529 -8.33822 -0.0358722 0.0140629 -0.00174333 
109 1 81.743 -0.660854 -8.08082 -0.0272681 -0.00691082 0.0165112 
111 1 82.275 -0.870521 -6.93672 -0.0191372 0.0232533 -0.0176145 
116 1 81.5295 0.0771669 -10.2113 -0.0344697 -0.0200298 0.033972 
125 1 80.5351 -2.79975 -6.52117 0.0247718 -0.0307941 -0.000385976 
122 1 79.9465 -1.93035 -7.4915 0.0179935 -0.00318629 0.00474324 
123 1 80.0382 0.307543 -10.3983 0.0046812 0.00803356 -0.00808145 
110 1 82.3385 -0.0480885 -9.07512 0.0146426 0.00352543 0.00305307 
81 1 83.5771 -11.3799 0.785302 -0.000575407 0.0209795 -0.00241247 
283 2 77.5817 5.7194 -0.420352 -0.0897015 0.0491209 -0.0238717 
77 1 81.6816 -9.76509 -0.164043 -0.00975929 -0.000930347 -0.0159844 
76 1 81.2886 -7.51115 0.144593 -0.00626536 -0.01991 0.000758911 
92 1 81.001 -6.34353 -1.954 0.00081876 -0.00412741 0.0256068 
95 1 80.1062 -7.54603 -2.42073 0.0281782 0.0109353 -0.00572385 
107 2 80.0494 -7.10519 -3.29913 0.0408665 0.0468468 -0.0230457 
83 1 81.4815 -10.7263 -1.34299 -0.00180104 -0.0211848 0.000646656 
106 2 79.646 -9.30731 -3.49426 0.0443329 0.0708032 0.041826 
94 1 80.8642 -10.9146 -2.69053 -0.0152375 0.0449899 0.0099186 
78 1 81.0765 -8.60683 -0.604435 -0.00902338 -0.0220244 0.00480416 
96 1 79.9611 -9.81654 -2.77216 0.00306858 -0.0255636 -0.0229375 
84 1 79.9815 -8.79511 -1.73651 0.0174708 -0.0170995 -0.00733287 
104 2 81.8214 -5.53779 -2.26375 0.0167382 0.0380475 0.0870558 
82 1 81.2622 -6.21222 -0.549437 -0.00790393 0.0246571 0.00692356 
91 1 81.8819 -5.12326 -0.128822 0.0305767 0.00693806 0.0194049 
88 1 82.4622 -4.03664 0.4462 0.00299674 0.00589244 -0.0151953 
138 2 81.0308 -2.28515 -4.0337 -0.08666 0.0204629 -0.0490557 
126 1 81.8491 -1.7807 -4.71121 0.00685318 -0.0096902 -0.00546091 
117 1 81.652 -1.98944 -6.05641 -0.00712036 -0.0214616 -0.0162266 
129 1 82.8149 -0.848539 -4.59703 0.00841927 0.001423 -0.0261747 
134 2 80.0674 -3.7167 -6.63607 0.0849504 0.0857379 0.0522014 
539 2 80.7486 4.92482 4.13539 -0.0255089 0.029731 -0.0674146 
74 1 82.5855 -7.70264 0.782734 -0.0122067 -0.0168926 -0.0265927 
75 1 82.8862 -10.1093 0.488918 0.00651208 -0.00908557 -5.43292e-05 
73 1 83.175 -8.8777 1.34458 -0.0107723 0.00462261 -0.00820892 
355 2 83.0773 -6.75605 1.04696 0.0143133 0.0452282 0.0875619 
103 2 82.0667 -3.29238 1.323 -0.0520386 0.0220298 0.0949897 
496 2 80.0215 0.692163 -11.5621 0.0582319 0.0411765 0.111175 
102 2 81.1138 -11.8817 -3.40703 0.0651932 -0.0649146 0.0126172 
278 2 77.0472 6.04277 -0.687692 -0.0903615 0.00287555 0.0572225 
179 2 81.3283 4.97902 4.40654 -0.0460512 0.0145346 0.109175 
124 1 82.3494 0.289758 -11.3058 0.00663586 0.00581078 -0.00710932 
113 1 83.6335 -0.458947 -6.74908 -0.0268386 -0.0067087 0.00299511 
141 2 82.8136 -0.516527 -3.4641 -0.0453503 -0.0222137 0.0621548 
93 1 82.3843 -11.8084 -1.25971 -0.0189105 -0.00236628 0.00633098 
112 1 83.8869 0.228049 -9.04793 -0.0290168 0.00406215 -0.0172431 
127 1 83.6419 0.135621 -11.6537 -0.0259298 -0.00369438 0.0103451 
119 1 83.9399 -0.90004 -5.5612 0.0012698 0.00191425 0.0268724 
279 2 71.4275 -10.7179 21.1163 -0.107178 0.104283 -0.143248 
267 1 72.4683 -10.4445 21.3549 0.0157773 0.00151325 -0.00135554 
265 1 72.9478 -10.1457 20.1713 0.0190543 -0.020247 0.00497362 
277 2 72.2874 -10.4431 19.1758 0.0163208 -0.0107949 -0.0167319 
259 1 74.4298 -10.0871 19.9487 -0.0138207 0.0107838 -0.0041971 
266 1 75.6505 -9.04682 19.4369 -0.00750066 0.00203735 0.0171577 
269 1 77.0215 -8.88626 19.8652 0.00849346 -0.00329547 0.0118876 
261 1 77.6148 -10.0745 20.6082 0.0188657 0.00255633 -0.0125313 
253 1 75.1088 -10.7762 21.0228 0.00291416 0.00986679 -0.0193939 
281 2 77.504 -8.27335 18.9948 -0.0445397 -0.00134827 0.0444364 
255 1 76.6255 -10.834 21.199 0.00369405 0.0205614 0.000355868 
260 1 73.2361 -11.4047 22.2019 0.0242613 -0.0241363 -0.0120996 
273 1 79.3108 -11.758 20.6635 0.0180654 0.00486309 -0.0100217 
502 2 83.5959 -11.0118 20.2322 -0.0717295 0.0826796 0.0230405 
270 1 78.9874 -10.4559 20.1807 -0.00503833 -0.0167225 -0.0657869 
285 2 79.5387 -9.83946 19.526 -0.0166897 0.0373944 -0.00867052 
503 2 67.6175 8.43994 32.5703 -0.0138364 0.0647834 0.00872665 
486 1 83.5523 -11.7838 19.4375 -0.00643608 0.00828186 -0.00242282 
254 1 74.5233 -11.852 21.9133 0.018551 -0.00254714 -0.0195594 
324 2 71.9807 -11.7515 12.3414 -0.0544355 0.0501505 -0.0639246 
33 2 76.2074 19.1797 -10.2381 0.103533 0.114341 -0.0902 
287 2 76.5476 19.0941 -9.95407 0.00936476 -0.000538457 0.0413526 
298 1 74.1442 32.0591 11.2768 -0.00995218 -0.000485005 -0.000737811 
307 1 74.9125 32.0789 9.92382 0.00487871 -0.0130713 -0.00282075 
391 2 76.3566 17.1762 6.90806 0.00432189 0.0805451 0.0674076 
90 1 83.5109 35.6268 -0.423186 -0.000570413 0.00588138 -0.0106832 
376 1 78.4472 17.6616 6.59251 0.00818105 -0.00371443 -0.013368 
387 2 81.7592 18.271 5.71141 0.00472899 0.0506754 -0.00230254 
368 1 79.6306 18.173 7.04375 0.0190318 0.00414676 -0.0137932 
375 1 81.0608 17.7709 6.36796 0.00375145 0.0164571 0.0198271 
367 1 81.43 18.2609 9.04959 0.00240932 0.00344238 -0.0238595 
374 1 82.393 18.3749 10.1964 -0.00642038 0.0117926 -0.0111945 
373 1 81.5614 17.5146 7.74457 0.0318669 -0.0104661 -0.0209841 
386 2 83.3278 17.7148 10.0212 -0.0401626 0.0699767 0.0178781 
379 1 77.214 17.9274 6.80109 -0.0094145 -0.00247612 -0.017397 
370 1 76.932 19.0134 7.93971 0.0364785 -0.0204914 0.00436467 
380 1 75.6309 19.2102 8.16734 0.0033008 0.0223671 0.0256125 
364 1 78.0156 19.404 8.58266 0.00301309 0.00623139 -0.0109943 
395 2 75.4275 18.6816 6.89853 -0.0604941 0.0290466 0.00998879 
383 1 74.9471 20.1527 8.93446 -0.0387854 -0.0173898 -0.00385387 
392 2 73.9285 20.1673 9.14008 0.0309268 0.0027577 -0.00688271 
372 1 75.982 20.5555 10.008 0.00778607 0.00524808 -0.0130885 
384 1 75.9975 21.1984 11.4027 -0.0058191 0.0134533 -0.0059516 
319 2 74.8298 31.6317 8.95347 -0.0410217 0.0184342 -0.0202229 
366 1 77.5337 20.1118 9.68245 0.0059132 -0.00446068 0.00928174 
362 1 79.2836 18.8645 8.23677 -0.00735589 -0.0194324 -0.0225114 
361 1 80.1274 18.7459 9.37153 0.0116951 0.0195478 0.000454782 
377 1 82.1133 18.9143 11.4745 -0.000594446 0.00138445 0.00324498 
365 1 78.4346 20.047 10.6746 0.00722894 0.0196788 0.0189082 
369 1 80.832 19.6104 11.4922 -0.00668436 -0.0200683 0.00397109 
363 1 79.8591 19.7496 10.4483 -0.037792 -0.0171492 0.00480794 
308 1 73.6037 33.128 11.952 0.0243062 0.0014385 0.0171432 
35 2 70.1869 26.6148 10.2384 0.0129389 0.127635 -0.120094 
310 1 72.89 26.5588 11.409 -0.0037009 -0.00845197 0.00490386 
291 1 73.6255 27.6924 11.6561 -0.00235512 0.0249966 0.0047381 
313 2 77.802 27.0719 10.7816 -0.0542869 -0.0293714 0.055147 
301 1 76.8454 27.5469 11.1508 -0.00922715 -0.0207112 -0.00488161 
290 1 74.9959 29.7254 11.6137 0.0160181 0.0117223 -0.019178 
315 2 77.7407 29.1716 10.037 0.00639332 -0.0252328 -0.0621776 
296 1 76.244 29.8483 10.9689 0.0193048 0.0130015 0.00841889 
303 1 77.3338 28.955 10.9644 0.00460385 0.00642149 0.0107864 
304 1 76.0082 31.1 10.2511 0.00287793 0.00546163 0.000222388 
178 2 78.6305 23.8473 11.5325 -0.0760022 0.0746306 -0.0104417 
180 2 79.8494 27.5493 12.044 0.0029272 0.0757412 -0.025348 
292 1 74.0181 30.8447 11.989 -0.00177643 0.0038666 0.0128063 
316 2 78.2421 29.5231 11.7942 0.0269243 0.0114562 -0.0345468 
390 2 76.0631 23.3172 13.1917 0.00144674 -0.0384964 -0.0489516 
169 2 78.1641 20.0247 17.301 -0.000250607 0.00589229 0.0737668 
164 1 77.0939 22.9001 12.5421 0.006219 0.000646184 0.0207978 
575 2 80.2542 35.6822 20.5749 -0.027296 -0.0187085 0.0165123 
159 1 79.0104 20.602 17.7298 0.0113328 0.00904275 0.00210047 
152 1 78.8375 21.79 17.1561 -0.0118345 -0.0120841 0.0395911 
145 1 81.054 22.2821 17.8091 -0.020797 0.00511869 0.0298326 
146 1 79.8911 22.6894 16.978 0.00108621 -0.00404241 0.0186145 
157 1 80.2049 20.1827 18.3923 -0.0177339 0.00653656 -0.00595216 
151 1 81.4154 21.0979 18.5712 -8.3797e-05 -0.00822114 -0.00481062 
171 2 80.0591 18.9177 18.8069 0.00620719 0.0546932 0.00969918 
147 1 82.0768 23.371 17.567 0.0104655 -0.003737 -0.0111467 
393 2 79.4292 21.8749 13.6211 0.0560723 -0.00480381 -0.074488 
378 1 80.5952 20.133 12.8396 -0.00840457 0.020431 0.00532126 