ITEM: TIMESTEP
620000
ITEM: NUMBER OF ATOMS
576
ITEM: BOX BOUNDS pp pp pp
-1.2000000000000000e+01 8.4000000000000000e+01
-1.2000000000000000e+01 3.6000000000000000e+01
-1.2000000000000000e+01 3.6000000000000000e+01
ITEM: ATOMS id type x y z vx vy vz 
140 2 11.6435 1.00537 -4.61044 -0.0698178 0.0679512 0.0601523 
128 1 10.5476 0.825467 -4.80314 0.00491961 -0.00535206 0.0171613 
131 1 9.34751 1.37955 -4.99957 -0.0119138 0.00256896 0.0221446 
114 1 9.19858 3.57972 -6.30707 -0.0019801 -0.0272484 -0.00725517 
120 1 9.00447 2.143 -6.31955 -0.00110188 -0.0280397 0.0229036 
142 2 7.64448 1.92516 -9.65291 -0.0190255 0.0710955 0.00243895 
113 1 9.91107 3.63451 -7.58838 -0.00463898 0.0023 0.0181261 
132 1 8.6416 1.45932 -7.5293 -0.00583658 0.0134935 0.0311977 
130 1 8.14727 2.23175 -8.76391 -0.00300962 0.00328087 0.0247482 
119 1 9.36319 2.97721 -8.73555 0.0267818 0.0236477 -0.00555698 
129 1 10.1971 3.00858 -9.71829 0.031516 0.00748747 0.00158452 
126 1 10.8132 4.27676 -9.8927 -0.0264615 -0.0124557 -0.00168248 
111 1 10.8498 4.69135 -7.49049 0.0229633 -0.00550974 0.00410015 
141 2 10.1058 2.54447 -10.793 0.00498797 -0.000144769 -0.0102185 
109 1 11.2356 5.23192 -6.15321 0.00554315 0.0194144 0.0375465 
127 1 9.51556 3.70632 -2.35048 -0.0142856 0.0213146 0.0162439 
124 1 10.7373 4.579 -2.4875 0.00328327 0.012548 0.033534 
136 2 11.5913 5.03758 -1.61215 -0.00606715 0.00106167 0.00546445 
143 2 8.64058 0.41691 -5.19034 0.029031 -0.0642279 -0.0238521 
112 1 9.44628 4.13284 -4.97506 -0.0198535 0.0125002 -0.00785147 
110 1 10.435 5.30618 -4.92746 0.0176782 -0.00739927 0.0134924 
139 2 8.15613 2.99665 -3.48567 -0.0132075 0.0354914 -0.033556 
118 1 9.01667 3.70593 -3.60333 -0.0115905 -0.0269017 0.00525807 
117 1 11.4754 4.97595 -8.81474 -0.00268172 0.0143732 0.0231067 
116 1 11.1123 5.37491 -3.63092 -0.0198614 0.0102856 -0.00777131 
177 2 9.31664 3.48792 -1.26163 0.0434843 -0.0374144 0.0257916 
138 2 11.1569 4.48948 -10.9854 0.0126229 0.048281 0.044297 
135 2 -7.61689 32.9794 -0.294176 0.0938885 -0.0867666 0.00240658 
282 2 -7.94092 32.6707 -1.00443 -0.0488239 -0.0197297 0.0202612 
540 2 -1.53933 13.4563 18.5815 0.060644 -0.0259151 -0.0383388 
537 2 -2.12746 14.1163 18.6875 0.00526437 0.0397604 0.0922984 
87 1 -9.62255 13.7612 28.4432 -0.00263493 0.0289023 -0.00682748 
384 1 -12.018 33.0953 29.013 -0.0192176 0.0133858 0.0138372 
396 2 -11.184 33.0188 28.3112 -0.0651318 0.00894196 -0.00768368 
80 1 -10.0306 13.2479 27.2706 0.0103636 -0.0232883 -0.0357319 
85 1 -8.93141 14.4715 29.5551 -0.0139728 -0.0183779 -0.0155083 
99 2 -8.31956 14.2054 30.4042 -0.12682 -0.0425885 -0.0521664 
100 2 -9.17657 12.7618 26.6634 0.0244151 0.0414139 -0.0998545 
390 2 -11.2919 31.2322 29.9294 0.0159851 -0.0357209 0.0655922 
383 1 -11.8614 35.6899 29.1355 0.0191544 -0.0298919 0.0104568 
395 2 -11.0955 35.6551 28.193 0.0149921 -0.0802946 -0.0107176 
572 2 17.9946 8.42148 8.18737 0.0247627 0.00701927 0.0394154 
125 1 12.9697 5.47352 -8.61348 -0.0168706 -0.00776179 -0.0046107 
137 2 13.6917 5.86666 -9.57725 0.0211464 -0.0275107 0.0502373 
567 2 22.3897 0.542063 9.7405 -0.0108511 -0.0124155 -0.0359464 
178 2 21.2435 -11.4838 -11.8909 0.0728319 -0.0493199 -0.0555091 
134 2 14.462 5.94551 -6.68754 -0.0932797 -0.0517799 -0.0258391 
121 1 13.1027 6.51337 -4.92807 -0.0289141 -0.017083 0.0111833 
115 1 12.5196 5.90215 -6.18756 -0.00782117 -0.0212896 -0.0177239 
122 1 13.4751 5.77368 -7.30008 0.00645862 0.0098695 0.0106017 
539 2 29.4429 7.11444 6.551 0.0131518 -0.0166608 0.046462 
532 2 12.8879 10.3524 -10.7995 0.0473982 -0.0651693 -0.0436204 
520 1 13.4963 11.2671 -10.9594 -0.0132873 0.00918619 0.00792647 
123 1 12.6195 5.62819 -3.80555 0.0116453 -0.0251462 -0.0287475 
570 2 15.5492 -2.69554 6.6999 -0.0520214 -0.0634166 0.0241928 
558 1 16.2137 -1.66266 6.7187 -0.0183322 -0.0107385 -0.00353354 
561 1 15.8719 -0.626275 5.78576 -0.0215044 -0.013372 0.00558355 
573 2 15.022 -0.64716 4.96573 0.0138288 -0.0174207 0.00699377 
421 2 15.0158 1.52672 2.88728 0.00223294 -0.0716611 0.0643537 
562 1 15.8394 1.54888 4.83783 -0.00612199 -0.0160881 -0.00982198 
564 1 15.3417 2.06417 3.76856 -0.0035095 -0.0238422 -0.00206431 
576 2 15.3815 3.18051 3.51429 -0.0236307 -0.00262781 0.0406926 
360 2 34.8545 -9.78249 11.1703 0.00931367 -0.00202733 -0.00998928 
359 2 32.4852 -11.1385 11.5989 -0.112761 0.0196308 -0.0102552 
347 1 32.5721 -11.4404 10.4848 -0.00353801 -0.0304099 -0.00127558 
348 1 35.0037 -10.5585 10.3691 0.00820012 -0.0200144 0.0218006 
336 1 33.8667 -11.445 9.985 -0.0294814 0.0179808 0.00571049 
179 2 29.9723 6.49084 7.10879 -0.0689298 0.00349122 -0.0758205 
553 1 21.2569 -1.05457 9.14138 0.0167306 0.0278482 -0.0532475 
566 2 18.9867 -3.10672 6.15089 0.024402 -0.0874578 0.106029 
549 1 17.6861 -1.45035 7.29612 -0.0321329 0.0178571 -0.0202904 
554 1 18.3609 -2.86287 7.21488 -0.00196328 0.00470013 -0.012506 
557 1 18.1051 -3.80954 7.89406 -0.0123493 0.00227835 -0.00968994 
547 1 19.7664 -0.960499 8.92809 0.0296411 0.00463909 -0.0264869 
541 1 19.4712 0.0890017 8.0569 0.011734 0.0173857 -0.00138375 
543 1 18.3427 -0.0753716 7.21382 -0.0357524 0.00329014 0.00423308 
569 2 19.061 -1.28227 9.61011 0.0166832 0.0392292 0.0135396 
551 1 16.255 0.819909 5.9329 -0.030114 -0.00854992 0.0126146 
571 2 21.1167 4.51601 10.5765 0.0250309 -0.0231869 0.0487478 
568 2 20.5049 2.47371 11.7013 -0.0816157 0.0300336 -0.0281147 
555 1 20.0963 1.24231 10.1355 -0.0152268 0.0385479 0.0208882 
560 1 18.9213 4.95235 8.57832 -0.00992439 0.011315 -0.00777782 
552 1 18.4253 6.15403 8.65542 -0.00722099 -0.0292834 0.00643259 
559 1 20.4699 3.96758 10.2872 -0.0035017 0.0138675 0.02167 
556 1 20.3748 2.58157 10.7938 -0.0314715 -0.0459355 0.000116917 
575 2 17.9224 3.32598 6.34924 -0.00344604 -0.0689031 0.0264688 
550 1 19.6599 3.78821 8.95474 -0.00130347 0.0174357 -0.0075758 
544 1 19.1455 2.61358 8.17262 -0.0244041 -0.0028562 0.00544532 
542 1 19.7483 1.41606 8.71252 0.0343648 -0.0269864 -0.0109304 
545 1 17.4205 1.18396 6.70405 -0.0126674 0.00681631 -0.00322536 
546 1 18.1627 2.3686 7.06629 0.0212535 0.006777 0.000221758 
548 1 21.2981 0.184501 9.75738 -0.0152754 0.00126058 0.000766352 
180 2 22.2626 -9.73463 -11.1954 -0.00956917 0.0798262 -0.000307035 
563 1 18.0809 7.47364 8.99298 0.00248618 0.0363667 -0.0168921 
565 2 22.0373 -2.01879 9.16579 0.179169 0.0198739 0.0359156 
356 2 30.3173 -11.7404 10.0227 0.0387392 0.0292681 -0.0176725 
512 1 14.6155 11.1593 -11.8222 0.0281979 -0.00693253 0.0273871 
444 1 18.2657 11.698 25.3917 -0.00056112 0.00520235 -0.00956818 
170 2 16.6692 -8.67099 30.71 -0.0132105 -0.0139151 0.0966304 
158 1 18.0581 -8.26844 30.2386 0.00395242 0.00214391 -0.0144989 
173 2 18.5593 -10.6639 29.9122 -0.0391219 0.039011 0.000560908 
468 2 18.2167 9.45991 24.7837 -0.0149356 0.0826154 -0.0333037 
465 2 18.1033 6.54097 27.2689 0.0904782 -0.062555 -0.0607034 
441 1 22.9974 11.6512 25.164 -0.014714 -0.00858601 -0.010016 
456 1 18.523 10.2358 25.5563 0.00331171 -0.00973478 -0.0178517 
462 2 17.296 7.12223 25.6617 -0.0576484 -0.0257106 -0.0245755 
443 1 19.8035 8.76628 26.6203 -0.0240109 0.0038226 -0.00973607 
450 1 18.2256 6.63828 26.265 0.0113853 -0.00221633 -0.0218465 
453 1 19.0288 7.76493 26.2438 0.00557871 0.0136799 0.0383184 
454 1 19.9124 9.99907 26.0432 -0.00170038 -0.010618 0.0310255 
437 1 20.4009 11.4569 25.7584 0.013276 0.00404765 -0.014016 
521 1 18.7487 11.2915 33.0774 0.0151573 -0.00895789 0.009182 
151 1 18.3519 -7.22594 31.1673 -0.0141257 0.00813144 -0.00655798 
157 1 17.9936 -5.88072 30.8035 0.0295113 -0.0139654 -0.0353266 
171 2 17.4024 -5.58211 29.9176 0.068828 0.0215103 -0.00102429 
153 1 19.711 -9.88993 31.2563 0.00417698 0.0129806 -0.00197518 
161 1 18.4297 -9.66356 30.2804 -0.0234802 0.0389787 -0.0105811 
162 1 20.0829 -11.3083 31.5893 0.00367258 -0.0184248 0.00705069 
145 1 19.321 -7.70607 32.0752 0.0126844 -0.0149458 0.00119887 
147 1 19.7101 -8.97023 32.392 -0.016271 0.00723228 0.0176934 
149 1 20.6097 -9.24065 33.4598 0.0226277 -0.0143022 -0.000329775 
165 1 20.6449 -11.6616 32.8985 0.0446879 -0.0162258 0.000780473 
150 1 21.3135 -8.11915 33.7621 -0.00913607 0.00515201 0.0216788 
155 1 20.6898 -10.5606 33.9524 -0.00264696 -0.00139155 0.0125443 
168 1 21.8555 -9.58058 35.8564 -0.0181524 -0.00802978 -0.0241738 
166 1 21.2334 -10.5753 35.2739 0.0278632 0.00189012 0.0248788 
533 2 19.6479 11.2805 32.4707 -0.00769459 0.00492407 -0.00341505 
156 1 21.7339 -8.33649 35.0753 -0.0227471 -0.0164314 0.0182247 
167 1 22.1477 -7.2543 35.8124 0.00493992 -0.0211445 -0.0159804 
146 1 19.8524 -6.43756 32.5733 0.0193727 0.0155287 0.00849836 
148 1 20.9332 -6.6401 33.5485 0.0145054 0.00831119 0.0264416 
159 1 18.6792 -4.91899 31.342 0.01611 0.0183066 -0.000132501 
169 2 18.657 -3.85443 31.2537 0.0360427 -0.0530331 0.0564522 
152 1 19.3328 -5.10939 32.6739 0.00352473 -0.0259395 -0.0182614 
172 2 18.4841 -3.60897 33.8801 0.0503395 -0.00701037 -0.0424742 
160 1 19.2714 -4.38536 34.0415 -0.0249492 -0.015971 0.00302535 
163 1 20.5482 -4.30084 34.7576 -0.0101312 -0.000776899 0.00630678 
175 2 20.9435 -3.73763 35.4821 -0.00348852 0.0290722 -0.020802 
154 1 21.4855 -5.52889 34.2654 0.0318082 0.0145004 -0.00800501 
164 1 22.1219 -6.17655 35.3271 -0.00965262 -0.0201507 -0.000103371 
517 1 16.0665 9.9791 35.1633 0.00804933 0.0338655 0.0441205 
531 2 13.9574 8.90035 35.5717 0.0819944 0.074433 0.0802759 
529 2 16.0009 8.818 35.0089 0.0698592 -0.0179428 -0.0361309 
530 2 17.9945 9.2566 33.0945 0.0119081 -0.0381018 0.0441182 
518 1 17.7795 10.3402 33.1493 -0.0133201 -0.0014602 0.0177865 
461 2 24.9207 11.3001 25.1333 0.125977 -0.00292276 -0.0304388 
519 1 14.7203 9.76572 35.7646 0.0100727 0.0156015 0.00870976 
511 1 16.6468 10.6969 34.0897 -0.00156324 -0.00149576 -0.00151474 
514 1 14.5027 13.4304 -10.6405 -0.0137787 -0.00182539 -0.00198381 
527 1 14.7357 15.6925 -10.5009 -0.00232472 0.00521425 0.0264621 
524 1 14.1734 14.5833 -10.0238 -0.00143041 -0.00982843 -0.00444157 
523 1 13.4684 12.4065 -10.5129 -0.00237084 0.00938051 0.0169616 
466 2 31.3855 34.1749 2.79756 0.135377 0.0339718 -0.131696 
105 2 30.4619 34.3661 2.49361 -0.00953266 0.0162913 0.139799 
351 2 31.9783 33.0968 4.35531 -0.00845564 -0.0239268 0.0604203 
339 1 32.8342 33.2952 5.05714 0.0135906 -0.00609947 0.0120405 
337 1 34.2445 33.107 4.66577 -0.00653725 -0.00405053 -0.00424348 
349 2 34.4797 32.801 3.61462 0.0385626 0.00719321 0.00102854 
331 1 34.8023 34.3859 5.11545 -0.01203 0.0172684 0.00376686 
535 2 12.6092 12.6492 -10.1348 0.0169225 0.0597569 -0.0524189 
536 2 13.0636 14.5901 -8.94978 -0.0043639 0.0377415 0.0453482 
343 1 30.6355 34.6381 8.12917 0.0156364 -0.00119039 0.00288405 
325 1 34.6734 34.768 6.56151 -0.0168963 -0.00120567 0.0134474 
340 1 31.0587 34.5113 6.75764 0.0188857 0.0141643 0.00190195 
328 1 33.2562 34.8692 8.35658 0.00152036 -0.00295186 -0.00754416 
332 1 32.476 34.0434 6.23964 0.00366613 -0.00355718 -0.0321803 
326 1 33.5922 34.2831 7.0895 -0.00238921 -0.00216097 -0.00126642 
334 1 31.9997 35.1256 8.83413 -0.0171333 -0.0129164 0.0170431 
327 1 35.7353 35.4216 7.0105 -0.0302824 0.00776216 -0.0112239 
330 1 34.112 35.8731 8.63427 0.00263625 0.0226386 -0.00867132 
344 1 31.4767 36.0186 9.74133 0.0223948 0.0162956 -0.00953171 
338 1 35.8188 34.9291 4.2138 -0.0052493 -0.000753271 0.0115884 
508 1 15.3587 13.3707 -11.907 0.0121529 0.0114125 0.00269894 
350 2 35.7271 34.2081 3.22871 -0.00887194 0.0199704 -0.0842329 
516 1 15.3801 15.7706 -11.7581 0.0344163 -0.030637 0.00782697 
329 1 35.4846 35.9895 8.17812 0.017592 -0.00152817 -0.00560465 
522 1 19.316 13.6999 34.0541 -0.037139 0.00166706 -0.00427596 
452 1 17.0268 13.6659 24.2469 -0.00946978 0.0125397 -0.0225056 
455 1 17.1114 12.5114 25.2268 -0.0212098 -0.00440233 0.0150289 
442 1 18.2709 14.549 24.5682 0.0135329 -0.0119434 -0.00924504 
463 2 17.4228 16.2797 23.9672 0.108867 0.0361004 0.0206735 
451 1 18.4244 15.9798 24.4216 0.0126215 -0.0100084 -0.0240092 
525 1 19.5298 14.9708 34.6071 -0.0105922 -0.0249379 0.00111456 
436 1 19.4003 13.7947 24.7365 -0.00337671 -0.00957376 0.00940781 
438 1 19.3776 12.4306 25.4493 0.00467825 -0.00577136 -0.00162079 
434 1 20.7264 14.2442 24.9164 -0.0166905 0.0193353 -0.0180614 
433 1 21.8671 13.634 25.3605 0.00419338 -0.000420466 0.00874532 
435 1 21.5779 12.1241 25.3728 0.0274651 -0.00422814 5.58132e-05 
439 1 23.169 14.2086 25.783 -0.00149643 -0.0176484 -0.0235263 
440 1 20.9549 15.7956 25.0138 0.0129229 -0.0429363 0.0092437 
445 1 23.1992 15.6396 25.9437 0.0269771 -0.00114655 0.0133718 
448 1 19.7873 16.5176 24.5171 -0.0130457 -0.0328461 -0.00497646 
447 1 21.768 16.0437 26.1586 0.00695775 0.000131168 0.00464095 
459 2 21.2046 16.5893 26.9709 0.0595037 0.00932891 0.0746995 
174 2 21.1678 35.4604 33.2692 0.0574715 -0.0760711 0.0157706 
457 2 24.2823 15.4946 26.3715 -0.0644942 -0.00101024 -0.0358483 
446 1 24.3281 13.3396 25.8396 -0.00338711 -0.000514975 -0.00823695 
458 2 25.401 13.6683 25.8592 0.0103245 0.0702166 0.0833479 
460 2 19.868 17.6235 24.6904 -0.0464642 0.0815219 -0.112207 
538 2 17.5882 17.4996 33.8791 -0.0260306 -0.0833602 -0.122315 
513 1 18.5508 12.5088 33.8138 0.00533461 0.00199745 -0.00505613 
528 1 16.3488 16.7191 35.7441 0.0232364 0.00815936 -0.00662524 
507 1 17.217 12.9093 34.5751 -0.00232441 0.0152512 0.00153123 
467 2 16.0889 12.3074 25.3648 0.00415289 -0.0496596 0.0297491 
526 1 17.3347 16.7273 34.5207 0.00903875 -0.00674132 0.019776 
510 1 15.5891 14.536 35.4127 0.0162148 -0.000394515 -0.00952864 
506 1 15.2497 12.1417 35.435 0.00196812 -0.00945484 -0.0116008 
515 1 17.9859 15.3029 34.6792 0.00888629 -0.000248109 0.0191114 
509 1 16.9165 14.316 34.969 0.0100624 -0.0209655 -0.00409562 
534 2 20.7283 15.5303 34.8821 0.0881973 -0.0545065 -0.0451975 
449 1 24.1465 12.0778 25.1215 -0.0175166 0.00257209 0.0114615 
505 1 16.1035 12.1165 34.2711 0.0268686 0.00883189 0.0192546 
259 1 41.464 -6.8963 -6.98678 0.0262933 0.00907694 0.01506 
253 1 41.933 -6.23484 -8.14882 0.00418409 0.000546386 0.00316239 
265 1 41.0865 -8.32721 -7.40606 -0.0237674 -0.0103858 -0.0107826 
277 2 40.8734 -8.82566 -6.43254 0.0120743 0.0380381 -0.0518356 
266 1 41.3194 -6.10727 -5.70771 0.0202072 0.00838788 -0.0181327 
279 2 41.3937 -10.4983 -8.70762 -0.00391757 -0.0417661 0.090196 
267 1 41.2722 -9.33278 -8.47857 0.00364396 0.0133212 0.00282481 
260 1 41.6083 -8.41274 -9.5267 -0.0187808 -0.023812 0.00726129 
254 1 42.0875 -7.06507 -9.33793 -0.0347789 -0.00372655 0.0195304 
256 1 42.6905 -6.52967 -10.4614 -0.0247951 0.00669125 0.00191484 
268 1 41.3719 -8.93319 -10.8767 -0.0269685 0.0297679 -0.00714173 
280 2 40.2034 -9.25349 -11.1798 -0.0800973 -0.0366237 0.0504448 
257 1 43.3992 -4.42029 -9.0872 0.00914266 -0.00717392 0.0258852 
261 1 42.8746 -4.60774 -6.68869 -0.00309029 0.0153254 0.0232138 
255 1 42.896 -5.23605 -8.02117 0.00493474 -0.00409838 0.0349859 
270 1 43.4965 -3.44157 -7.10569 0.014137 -0.0174562 -0.0035533 
263 1 44.3738 -3.1796 -9.08421 -0.00289171 -0.0121887 0.0129049 
273 1 44.6675 -2.54197 -7.77742 0.00911575 0.0168113 0.0144295 
285 2 45.2869 -1.7082 -7.53439 -0.0528058 -0.0264643 -0.0131406 
286 2 46.0238 -1.91526 -10.3105 0.00121555 -0.0172095 -0.000437929 
274 1 45.2488 -2.6789 -10.2963 -0.0127416 0.00972542 -0.00104407 
258 1 43.507 -5.2827 -10.261 0.0215185 -0.0105374 0.00795687 
276 1 45.0231 -3.37777 -11.6255 -0.0218656 -1.84011e-05 -0.00595486 
264 1 44.5959 -4.74398 -11.2457 -0.00202315 -0.00189365 -0.0025802 
342 1 38.0131 -11.3145 6.58906 -0.00441569 -0.00163879 -0.0158085 
269 1 41.6533 -4.71926 -5.64331 -0.0267843 0.0284773 -0.0199593 
281 2 41.4038 -4.37895 -4.70718 -0.0636186 -0.0323561 -0.104513 
64 2 53.0345 0.301836 5.24615 0.0789486 -0.0979718 0.129092 
464 2 53.2926 -0.292157 6.11262 -0.0230523 0.0461216 0.0668406 
346 1 36.2637 -10.3705 9.81531 0.00215282 0.0202057 -0.00411224 
358 2 36.3046 -9.35068 10.4335 -0.0882874 -0.0539849 -0.033645 
335 1 36.3298 -10.8263 8.47796 0.00951485 -0.0185927 -0.00615232 
345 1 37.6597 -10.824 7.72878 -0.00596314 0.0205556 -0.0273365 
216 2 38.4589 -10.5126 8.46376 -0.0807421 0.141545 0.132139 
354 2 39.0173 -11.3258 6.1282 -0.0461036 -0.0432329 0.066561 
262 1 43.3883 -7.22116 -11.5558 -0.00974145 -0.00307271 -0.0100744 
271 1 42.3176 -8.22533 -11.6936 0.0217308 -0.00370942 0.000167891 
241 2 51.3936 -10.9398 18.9109 0.0678828 0.0299555 0.0263156 
242 2 54.7623 -10.191 19.4466 0.0138764 -0.0237976 -0.0586861 
275 1 44.1846 -5.03991 35.333 -0.0134574 0.00916438 0.00391346 
287 2 43.672 -6.5655 34.1867 -0.00850682 -0.0393099 -0.0256227 
230 1 54.5056 -11.2621 19.7044 -0.00129203 0.0116005 0.00765456 
229 1 51.8839 -11.7342 19.5746 -0.00673553 0.00270376 -0.0251903 
284 2 42.7292 -8.46955 35.189 -0.04728 -0.00295269 0.103701 
272 1 43.8597 -6.53768 35.2344 -0.00623321 -0.0341294 -0.00589141 
245 2 56.8594 -11.7898 19.2968 -0.00748 0.102517 -0.0728309 
288 2 45.0088 -2.44884 35.6523 -0.00630583 -0.0424008 0.0021385 
144 2 59.7256 -8.86983 29.3892 -0.0685966 -0.0379996 0.110856 
394 2 59.4161 -9.12089 30.3081 -0.033922 -0.0572748 -0.0550666 
333 1 36.7134 35.9555 6.03134 -0.00531064 0.021469 -0.011831 
278 2 40.3992 25.9377 -5.17474 -0.0184021 -0.0182897 -0.105828 
475 1 50.5727 27.8873 -10.7399 0.0226372 0.0271298 -0.00398699 
482 1 51.9388 28.5531 -10.2781 0.0023631 -0.0134579 0.0040332 
488 1 53.7407 25.4548 -11.1431 -0.00213033 -0.0369763 -0.000490491 
485 1 53.0992 27.7056 -10.5236 0.0021659 -0.00547243 0.00456905 
477 1 52.7122 26.4078 -10.9967 -0.00840825 -0.0276635 -0.00394872 
498 2 54.0766 28.027 -10.0381 -0.00945654 -0.0238044 0.0616025 
494 2 51.8505 29.1602 -9.53534 0.0358481 0.0704944 0.00837216 
108 2 49.5777 28.4585 -10.543 -0.0483953 0.0925252 0.052058 
469 1 50.5819 26.9737 -11.6516 0.0137711 0.0037237 -0.0169834 
501 2 55.6379 25.4538 -11.804 0.043144 0.0776555 -0.0169181 
491 1 54.7603 24.8973 -11.2437 0.0042679 -0.0185907 0.00838431 
500 2 54.7991 23.7139 -11.536 0.0867001 0.0313416 0.0251622 
341 1 36.823 35.8181 4.50617 -0.00106915 -0.00484773 0.00162095 
496 2 47.3242 16.8616 -11.487 0.0290429 0.0121906 0.00902016 
471 1 51.6419 25.9157 -11.7816 -0.0274495 -0.00819898 0.00119398 
283 2 40.0585 25.658 -6.0927 -0.0273147 -0.0834926 -0.107394 
176 2 40.5212 16.5309 0.029484 0.121468 -0.0716426 -0.0219384 
493 2 47.3219 28.4562 -12.069 0.0410863 0.115594 -0.0878657 
353 2 37.598 35.81 3.95143 0.0635434 -0.0395192 -0.0575535 
251 2 50.3864 30.2748 23.1612 -0.0184546 0.00489998 -0.001595 
239 1 51.4833 30.5167 22.8247 -0.013429 0.0152712 0.0158109 
236 1 52.4597 29.9843 22.3313 0.00248531 -0.0116773 -0.0433217 
228 1 53.3282 30.6317 21.596 -0.00782875 0.000446421 0.00101404 
248 2 54.2192 30.0628 21.4714 -0.00324713 0.0244373 -0.0579473 
235 1 49.914 32.5666 22.4627 -0.00774738 0.0188705 -0.00664436 
247 2 49.3031 31.8921 23.0818 0.0540311 0.0136974 0.0678368 
226 1 51.1075 32.0214 22.1438 0.00169097 0.0222843 0.0207757 
220 1 52.1912 32.7853 21.7291 -0.000935838 0.00642455 0.0149991 
244 2 48.9554 33.9777 21.3118 0.051702 0.0446666 0.0184797 
232 1 49.8208 33.5984 21.4426 -0.00745492 0.0113012 0.0101024 
224 1 50.8714 34.3175 20.8636 -0.0146927 0.0205132 -0.0131258 
218 1 52.1831 33.8181 20.7168 -0.00826404 0.0127983 -0.0267539 
231 1 50.6132 35.3332 19.8068 -0.0076529 0.0171774 0.0254812 
474 1 52.4227 23.9375 34.4868 -0.0324584 -0.0165316 -0.0204904 
243 2 49.6183 35.0249 19.2534 -0.0824371 -0.0289861 -0.0416679 
223 1 53.2309 35.8642 19.9099 0.018644 0.0024453 -0.0142168 
217 1 53.3085 34.4643 20.0948 0.00691956 -0.000611894 -0.0216859 
222 1 53.4328 32.1326 21.2621 -0.00757765 0.0191379 -0.00245103 
481 1 49.3813 27.0878 35.2506 0.012078 -0.0231631 0.000637628 
237 1 57.0723 32.532 20.3601 -0.00292234 0.00997821 0.00966232 
246 2 57.8412 34.341 20.016 0.0541294 0.0668462 -0.0587558 
234 1 56.9454 33.9176 20.378 -0.0278852 -0.0112909 -0.0210488 
219 1 54.4164 33.7688 20.1309 0.00149131 0.0304741 -0.0129064 
233 1 55.6802 35.9401 19.6564 0.00416969 -0.00791767 -0.0361822 
225 1 55.5886 34.5151 20.0733 -0.0276343 -0.00269683 -0.00867215 
227 1 55.9214 31.9577 21.1323 -0.00138662 0.00711571 0.0128166 
221 1 54.7005 32.6452 21.0337 -0.0057897 0.00257237 -0.000345633 
249 2 58.0005 31.9974 20.0377 -0.0316012 0.114281 -0.0592482 
238 1 55.7069 31.4965 22.5341 -0.0126039 0.00419126 0.0142939 
484 1 48.0168 25.4759 33.5456 0.00471542 0.0198853 0.0203028 
30 2 59.2383 20.6933 29.6463 0.0421295 0.0759165 -0.157413 
8 1 59.904 23.5471 26.2309 0.00981815 -0.00262347 -0.00941161 
15 1 58.731 24.0807 26.9722 -0.00581203 0.0285368 -0.0281025 
13 1 58.0832 23.461 28.243 0.0019062 0.00349798 0.00715234 
7 1 59.0542 22.8181 29.0682 -0.0111824 -0.00400669 0.024465 
25 2 57.1222 23.1948 28.7166 0.00520917 0.000500457 -0.0898384 
26 2 58.7327 22.234 30.15 -0.0622043 0.0417213 -0.0958471 
27 2 58.0606 24.5482 26.1344 0.0190263 -0.0185425 -0.0574186 
497 2 53.3342 23.8036 34.7745 0.102125 0.0848811 -0.0155583 
240 1 55.5673 31.184 23.7988 0.0304953 -0.00927307 -0.0179517 
252 2 54.5522 30.7909 23.7933 0.026586 0.0137271 -0.0990199 
357 2 56.0407 31.4213 24.5213 0.0486379 -0.0498811 -0.0288272 
483 1 48.1776 27.8449 35.2896 0.00992358 0.00292527 0.00415332 
71 2 45.4357 27.9435 29.7622 0.00881313 0.0472128 -0.0268418 
504 2 44.5108 27.94 30.0187 0.0169005 0.117912 -0.0391502 
490 1 52.6146 21.5111 31.4861 -0.000505055 -0.00953607 -0.015209 
480 1 52.7889 22.4636 32.5797 -0.00394675 0.00295996 -0.00293757 
487 1 48.0137 23.9745 33.6979 0.0101841 -0.0119542 -0.00553675 
503 2 48.9059 23.3881 31.7737 0.0822753 0.037674 -0.0361136 
473 1 51.9324 23.4902 33.0839 0.00810185 0.00906362 -0.0182755 
478 1 49.1272 23.603 32.808 0.00478435 0.00897355 -0.0160969 
472 1 50.5829 23.989 33.3883 0.0143214 -0.00497635 -0.0204067 
486 1 56.7234 21.2886 31.5732 0.00653282 0.0352422 0.0255689 
502 2 57.8928 21.2178 31.7001 -0.0045693 -0.0683337 0.0253628 
489 1 55.5139 21.5519 31.7169 0.0119999 0.00740438 -0.0188745 
492 1 54.1931 21.6091 31.5222 -0.00585226 0.0192063 -0.016383 
499 2 47.3274 26.3737 33.891 0.0148146 0.0601777 0.11829 
470 1 50.3803 24.9172 34.1081 -0.00485479 0.0111962 -0.00423879 
476 1 49.3084 25.7821 34.5154 -0.0107654 0.00750871 -0.0127714 
479 1 51.4772 24.8636 35.1102 -0.0090378 -0.00336725 0.00405165 
31 2 59.2949 24.4332 23.2039 -0.0409971 0.000986453 0.0156029 
54 1 66.5656 9.32449 9.44079 0.0172768 -0.0070489 -0.0167753 
250 2 67.689 2.69913 -6.08913 0.00266717 -0.0403374 -0.0095296 
104 2 65.2793 -11.2225 2.20979 -0.00275169 -0.0171395 -0.0149679 
92 1 65.1005 -11.2386 3.19028 0.00695135 -0.00727611 0.0081054 
78 1 65.4712 -11.0355 6.1399 -0.0264264 -0.0258642 0.0145018 
82 1 63.7811 -10.9437 3.78055 0.00278502 0.0138794 0.00728209 
74 1 63.0021 -10.0833 5.5815 0.0255396 0.0368614 0.0171767 
76 1 64.3725 -10.338 5.11841 -0.00709389 0.000699566 0.019492 
355 2 62.0106 -9.91535 5.2321 0.0748601 -0.00691505 -0.0617061 
91 1 63.0335 -10.5607 2.49204 0.00324225 -0.00245158 -0.00919664 
88 1 62.4269 -10.315 1.57595 -0.00990419 -0.0357494 0.0092452 
103 2 61.6948 -10.129 0.428214 0.0514954 -0.0792185 0.0154883 
95 1 66.212 -11.6162 4.09718 0.0323967 -0.0223267 0.0177698 
57 1 65.7456 10.2568 9.92678 -0.0215324 -0.00810612 0.0156721 
94 1 67.5399 -11.5631 7.80478 0.0199896 0.00657095 0.000421721 
77 1 65.2123 -10.9758 7.50581 -0.00666375 0.00200982 0.0161524 
75 1 64.0169 -10.109 8.14916 0.0144674 0.00767359 -0.0112105 
73 1 63.1475 -9.39651 7.09617 -0.0183244 0.00168126 0.000531969 
97 2 61.5177 -7.75009 7.10771 0.043261 -0.0169812 -0.0376399 
101 2 62.657 -8.78797 10.7243 -0.0734589 -0.0181977 0.0718545 
81 1 64.0714 -9.96641 9.53716 -0.00801842 -0.0193591 0.0344042 
98 2 61.7988 -7.23795 9.35048 0.0727311 0.0647642 0.0326598 
79 1 62.4293 -8.40257 7.54621 -0.0310111 -0.0161212 0.0144673 
89 1 63.3174 -8.58223 9.75209 -0.0126283 -0.0129563 6.94473e-05 
86 1 62.2592 -8.0935 8.98823 0.00436976 0.00116686 -0.0100872 
90 1 65.0207 -10.3846 10.5888 0.0370762 0.0203942 0.0149071 
93 1 65.9682 -10.9344 9.99632 -0.00690224 0.00847761 0.0155981 
83 1 66.1198 -11.1422 8.55445 -0.012042 0.0170152 -0.0162454 
47 1 65.7369 11.6241 10.5565 -0.0161426 -0.0189382 0.00477517 
84 1 66.5317 -11.6992 5.65942 -0.0039128 0.00878329 -0.020605 
574 2 79.514 6.5203 11.4821 0.0749514 -0.0185871 0.0550822 
352 2 79.9819 6.66155 10.856 0.0136872 0.11891 0.00988726 
69 2 66.9395 8.12376 9.60415 -0.024557 0.0654832 0.0339566 
66 2 65.1016 11.8654 9.74579 0.0353165 0.0479046 0.097573 
102 2 66.8474 -11.2381 10.7133 0.0309718 -0.0360049 -0.067814 
106 2 67.9967 -11.2672 8.77487 -0.070864 -0.00608095 0.0516338 
107 2 67.0039 -11.3327 3.61814 0.0774144 -0.000897803 0.0514906 
387 2 79.514 -10.1666 -11.8124 -0.000866389 0.0602563 0.0114011 
204 1 76.7683 11.625 35.2349 -0.011207 -0.00302498 -0.0286608 
303 1 73.3578 -0.949164 23.9798 0.00688437 -0.00933359 0.0373711 
315 2 72.9881 -1.43813 22.9817 0.00612613 0.0553316 0.025946 
296 1 74.8593 -0.679344 23.8406 -0.00668409 -0.000718857 0.000282565 
316 2 74.4682 -1.16984 21.9552 0.0111156 0.0737343 -0.0432594 
304 1 75.2966 -0.460029 22.4361 -0.0181771 -0.00359301 0.000191698 
307 1 76.6084 0.015675 22.3137 -0.00148912 -0.03001 0.00259741 
319 2 76.8948 0.620805 21.3433 -0.0280268 -0.0425008 -0.0266472 
298 1 77.219 0.385244 23.5729 0.00936987 0.0027602 -0.0131412 
320 2 78.5767 1.67613 22.3283 0.125061 -0.0836236 -0.117239 
214 2 77.3683 10.8491 34.9588 0.0135172 0.0247076 0.0804553 
215 2 76.3584 9.65109 33.7383 -0.046464 0.00459901 0.00939537 
380 1 83.4707 -11.1385 29.7915 -0.0201773 0.0179922 0.0296586 
203 1 75.4607 10.3637 33.3683 -0.00568934 -0.0132441 -0.00293655 
190 1 73.0924 11.0838 32.7243 -0.00794188 0.000960086 0.0150351 
314 2 72.2919 -2.44584 27.4152 -0.063264 0.0939586 -0.0566652 
313 2 71.4635 -1.51069 25.1712 -0.053823 0.0196029 -0.0425789 
301 1 72.6181 -1.17396 25.1812 -0.000107332 0.00993682 0.0343827 
317 2 72.8626 -0.87055 29.515 -0.0659492 -0.0329489 -0.0833332 
302 1 72.9954 -1.59482 27.348 0.0176707 0.00550894 0.00490464 
295 1 73.5203 -0.843868 26.3105 -0.0179498 -0.0183132 -0.00487474 
305 1 73.3466 -0.7919 28.4195 0.00153295 -0.00271863 -0.00970634 
297 1 74.5552 0.142828 28.3144 0.0118622 0.0231125 0.00387151 
289 1 75.0695 -0.51065 26.2605 0.0134272 0.0105757 -0.0033938 
210 2 61.1017 2.68407 22.134 -0.0169263 0.00323413 -0.0696244 
291 1 75.4123 0.608929 27.1685 0.0126223 -0.0184963 -0.000797447 
290 1 75.6128 -0.0996763 25.0022 -0.0250974 -0.0186561 -0.0128238 
306 1 74.6664 1.05625 29.4416 0.00555949 -0.00335949 0.0117411 
310 1 77.3825 2.2346 27.8811 0.00512244 0.000289779 -0.013109 
293 1 76.6357 1.46535 26.8009 0.0310755 -0.0234269 0.00806893 
292 1 76.9308 -0.000943507 24.9605 0.0161653 0.0178146 0.00867911 
294 1 77.611 0.820878 25.9739 -0.0102738 0.0289588 -0.0097742 
322 2 78.123 2.76575 27.3828 -0.0772254 -0.0240872 0.0455903 
324 2 80.7212 1.19581 27.6068 0.108122 -0.00549723 -0.010308 
299 1 76.6356 2.91236 29.1201 0.0055857 0.0314249 0.0212704 
300 1 79.0175 1.341 25.949 0.000651258 -0.00287357 -0.033388 
321 2 80.2952 2.64462 27.6014 -0.0579851 -0.0515115 -0.0478419 
312 1 79.9013 1.89965 27.0379 -0.00115807 -0.0188318 -0.0139639 
311 1 79.2591 1.71854 24.5032 0.0300667 0.0100919 0.00559259 
323 2 80.2998 2.05376 24.2944 0.0271038 -0.062657 -0.0281005 
308 1 78.4062 1.27143 23.3698 -0.0270417 -0.00067109 -0.0128306 
391 2 80.625 -8.77897 32.3042 -0.0867308 -0.00275013 0.104866 
370 1 82.3034 -11.3633 30.4739 0.00701984 0.00207941 -0.00463062 
379 1 81.9041 -10.0674 31.2508 0.0102611 -0.0251135 -0.0118604 
376 1 81.2981 -9.62193 32.386 0.013963 -0.0263282 -0.00158005 
368 1 80.6773 -11.1331 32.8627 -0.015189 -0.00518024 -0.0417606 
375 1 80.0732 -10.9961 34.089 -0.00454237 -0.0103935 -0.00145118 
373 1 79.7315 -11.1285 35.5255 0.0115696 0.00210491 -0.0065184 
309 1 75.7151 2.23178 29.352 -0.0156839 -0.00041664 -0.0146743 
318 2 76.4922 3.81904 29.5261 -0.121332 0.056248 0.123915 
208 2 69.9946 11.2945 31.3465 -0.0277778 -0.0294055 -0.0438274 
211 2 71.5192 9.58965 31.8803 -0.022168 -0.0335039 -0.0429021 
199 1 71.675 10.5316 32.3674 0.010862 0.0270497 -0.00489903 
196 1 70.9936 11.6958 31.991 0.0121484 0.0184656 0.0302764 
200 1 74.3294 10.4217 32.3379 0.00342927 0.0153633 -0.00864088 
192 1 75.5511 11.3772 34.3864 -0.0132148 -0.014948 -0.0125689 
212 2 74.7984 9.5677 31.7953 0.0345698 -0.0335542 0.0405421 
392 2 83.6751 -10.0498 29.4417 0.0166531 0.0520018 0.00649104 
70 2 66.6205 11.7805 13.1995 0.028855 0.000147173 -0.0303079 
213 2 76.6439 15.0511 -11.0975 0.00597024 0.0573821 0.0145394 
201 1 75.7993 14.9422 -11.6493 -0.00573639 -0.0274152 0.02343 
198 1 75.2219 16.1503 -11.6371 -0.00700072 -0.017511 -0.0183614 
49 1 65.0762 18.4638 8.22642 0.000319526 0.0114968 -0.0154592 
133 2 75.7315 16.9609 -11.0943 0.0523749 -0.0915522 -0.0200757 
61 2 64.5659 19.0021 7.26255 -0.0184058 -0.0451652 0.000921532 
65 2 65.8332 16.6 5.70279 0.0252526 -0.0633711 0.0315514 
96 1 67.6004 35.6698 6.61309 -0.000159836 -0.000980018 0.00251978 
37 1 65.7893 16.3254 9.01878 0.021361 0.0310217 -0.00653435 
38 1 65.718 16.9662 10.3867 -0.00154427 -0.00135837 0.0259778 
42 1 65.8997 14.8552 11.5256 -0.00416341 -0.0149908 -0.0132366 
41 1 65.7924 14.1031 10.4105 0.0178028 -0.00100073 -0.00214348 
40 1 66.1505 16.2946 11.6914 0.0035628 0.0127778 -0.0325432 
39 1 65.8361 14.7388 9.01729 -0.0188048 0.0102464 -0.0190839 
58 1 66.4169 12.794 11.0881 -0.0177973 -0.0326196 -0.00982032 
43 1 65.8972 17.1969 7.91656 -0.0297529 -0.0098173 0.0289013 
50 1 65.6438 16.4626 6.71861 -0.0171435 0.00125442 0.00125845 
45 1 65.0362 14.147 8.16338 0.0234274 -0.00904039 -0.00241623 
202 1 76.6051 12.6449 -11.6109 0.0142524 0.0156475 -0.00118364 
63 2 64.4235 20.3349 9.61695 0.000528844 0.144788 0.0330283 
53 1 64.9138 15.1501 6.93374 0.000282736 -0.0301274 0.0278785 
62 2 64.7792 13.0563 8.42653 -0.00510913 0.0268833 0.0296251 
44 1 65.4861 18.3835 10.604 -0.0105276 -0.0109609 -0.00174176 
52 1 65.6635 18.604 11.9778 0.00224956 -0.01609 0.0134839 
51 1 65.0413 19.1377 9.52891 0.02296 0.0156108 0.0126119 
72 2 65.8969 13.9346 15.3073 -0.105355 0.0596058 -0.0173711 
68 2 64.1141 15.049 13.5239 0.00475173 -0.00500198 0.0691837 