ITEM: TIMESTEP
470000
ITEM: NUMBER OF ATOMS
576
ITEM: BOX BOUNDS pp pp pp
-1.2000000000000000e+01 8.4000000000000000e+01
-1.2000000000000000e+01 3.6000000000000000e+01
-1.2000000000000000e+01 3.6000000000000000e+01
ITEM: ATOMS id type x y z vx vy vz 
377 1 6.83681 -7.8851 7.64746 -6.70511e-05 -0.0169453 0.00175593 
391 2 -0.306872 -10.6364 4.54057 0.0150444 -0.0606928 -0.0631426 
384 1 5.29822 -10.761 1.85977 -0.0267358 0.0165964 0.00382275 
383 1 2.77073 -11.2565 1.9358 -0.0046049 0.00648641 0.0325609 
372 1 3.9417 -10.4107 2.41057 0.0127996 -0.0207267 -0.0150123 
379 1 0.723685 -10.3238 4.9522 -0.0114534 -0.0199389 -0.00999657 
380 1 2.29649 -11.6696 3.17054 0.0147714 0.00660466 -0.0038669 
365 1 5.27159 -9.60346 4.3434 0.0239256 -0.00035176 -0.00772749 
366 1 3.95857 -10.011 3.86107 -0.0157177 -0.00509906 0.0163005 
370 1 1.91989 -11.0254 4.47794 -0.00675337 -0.0256677 -0.00676988 
364 1 2.86098 -10.0166 4.76376 0.00317445 -0.0186104 -0.0204733 
363 1 5.19527 -9.06251 5.61288 -0.0115083 0.0287516 -0.00359856 
362 1 2.91573 -9.86124 6.13529 -0.0118498 -0.00869911 0.00763373 
389 2 7.58991 -7.35114 8.23105 -0.00996022 -0.130219 -0.018288 
382 1 6.61814 -10.2637 2.38811 -0.0051703 -0.00293106 0.000382892 
371 1 6.59472 -9.44722 3.60048 0.0164718 -0.00708134 0.00580263 
390 2 7.64926 -10.3642 1.85676 -0.0147623 0.0484765 0.00671339 
381 1 7.61679 -8.45816 3.89018 0.020258 0.00142124 0.00774253 
378 1 7.59455 -8.22134 5.35236 0.0318974 -0.00270408 -0.00028927 
369 1 6.71904 -8.41403 6.29222 -0.00208822 0.0154869 0.0228726 
495 2 8.45151 -7.866 5.79511 0.064513 0.0250071 0.027936 
393 2 8.18003 -7.90587 3.15569 0.0235828 -0.0578989 0.101028 
388 2 0.750925 -8.41727 5.32223 0.129225 0.00168052 -0.0796493 
386 2 5.17498 -7.81989 9.46317 0.0269568 0.0345901 0.0434741 
361 1 4.24589 -9.31999 6.47092 -0.0140607 0.00753843 -0.00836791 
374 1 5.59362 -8.17587 8.44041 0.0266381 0.00474048 -0.0172786 
376 1 0.495841 -9.50157 6.03994 0.00838992 -0.00985863 0.0165045 
368 1 1.85289 -9.39022 6.96117 -0.037742 -0.00262746 0.0161579 
367 1 4.46224 -8.88252 8.08117 -0.0167614 0.0177893 0.0311295 
387 2 1.00345 -9.00052 8.62157 0.00370069 0.0325077 -0.0360652 
375 1 2.01243 -9.56272 8.33324 -0.0189015 0.0235479 -0.00434431 
385 2 3.32157 -8.13027 9.73959 -0.027608 -0.0216792 -0.0230587 
373 1 3.21625 -8.72678 8.84718 0.0229127 0.00535916 0.00492643 
395 2 2.42762 -10.7678 0.842926 -0.0478628 0.0116768 0.00938949 
396 2 5.35265 -11.9009 1.55125 -0.0442864 0.0728143 -0.146664 
242 2 1.43729 -1.51469 16.2649 -0.0277695 0.0593381 0.0248685 
245 2 -0.860206 -2.84308 17.4592 -0.0178538 0.0294027 -0.0821751 
243 2 4.46448 -4.97298 18.5522 -0.0228191 0.0351667 -0.0869938 
241 2 2.5414 -4.10095 16.6328 -0.0377921 0.0688059 -0.0334591 
229 1 2.52732 -4.12775 17.6777 0.00195686 0.00743823 0.0204062 
231 1 3.77275 -4.25034 18.5747 0.000846752 -0.0110217 -0.0101825 
230 1 0.795767 -2.08134 16.9605 0.0263869 -0.0249698 -0.00225013 
449 1 -2.7084 11.3551 16.9917 -0.000966339 0.00822974 0.001479 
458 2 -0.714883 10.8661 17.687 -0.0660965 -0.0214936 0.0084444 
446 1 -1.73938 10.7787 17.8343 0.0262643 0.0109392 -0.00805652 
461 2 -2.06546 11.3809 15.9308 0.0160217 0.0513003 0.0276703 
246 2 -2.42529 0.184399 19.791 -0.0554029 -0.0702371 -0.0453534 
233 1 -0.423709 -1.81436 17.7446 -0.000635293 0.0109824 -0.00648348 
234 1 -1.48737 -0.471108 19.8662 -0.0172154 -0.00237972 0.00771092 
225 1 -0.453411 -1.12193 19.0174 0.016404 0.0135741 -0.00709933 
223 1 1.74871 -2.88358 17.9412 0.0018977 0.00913147 0.00557259 
224 1 4.27073 -3.10509 19.3606 0.00874649 0.00943468 0.0231006 
217 1 2.03572 -2.15428 19.1359 0.0155317 -0.000847033 0.011849 
218 1 3.47037 -1.96688 19.4228 0.00253186 0.0302428 0.0160732 
219 1 1.02125 -1.17866 19.393 -0.0379792 0.0249003 -0.0320655 
221 1 1.06075 -0.923435 20.8132 0.00366623 0.00135753 0.000804354 
227 1 0.115503 0.0387533 21.2293 -0.020025 0.0269362 -0.00812903 
222 1 2.43683 -0.604668 21.3841 0.00279353 -0.000443961 0.00843936 
220 1 3.70844 -1.37828 20.8105 0.00697014 -0.03994 -0.00389447 
228 1 2.66494 0.0631515 22.6908 -0.0033819 0.0130744 0.00374148 
226 1 4.84901 -1.48652 21.2873 0.0104688 0.0174233 -0.0213486 
236 1 4.86804 -1.02272 22.7585 -0.0169987 0.00709432 0.0126989 
232 1 5.82311 -3.24081 19.6739 -0.033615 0.0135465 -0.0063657 
235 1 6.05815 -2.20103 20.5231 -0.00249186 0.00683717 -0.0112983 
251 2 5.70336 -1.34295 23.4607 0.0589966 0.00561919 -0.0330796 
244 2 6.40238 -4.03035 20.0103 -0.0322209 0.111277 -0.0380398 
247 2 7.09213 -2.12169 21.0156 0.00769469 -0.094566 -0.00593991 
237 1 -1.12135 -0.699639 21.2219 -0.00591122 -0.00391013 0.0160419 
249 2 -0.422434 -1.54804 21.3396 -0.0754439 0.0807242 0.00819072 
250 2 -0.476243 1.42219 22.5426 0.0253101 -0.0117857 -0.00828125 
239 1 4.04272 0.0989538 23.237 -0.0131731 -0.0130908 0.0105226 
248 2 4.06525 1.01305 23.8704 0.0178067 0.0352519 0.0709958 
238 1 0.515018 0.900127 22.3152 0.00522639 -0.0137723 0.0155954 
240 1 1.49825 0.780707 23.2358 0.0119583 -0.00587718 -0.0218186 
252 2 1.79243 0.89528 24.4589 -0.069279 0.00522079 0.0404671 
451 1 -5.87971 11.5192 22.7354 -0.0202864 0.0118424 0.00220461 
463 2 -6.10461 11.6843 23.7623 -0.0144354 0.0385308 -0.0355151 
435 1 -5.03923 11.5676 17.7088 0.00579344 -0.0179442 -0.0276248 
436 1 -6.44931 11.6993 20.3381 0.0121514 0.0359802 -0.00149183 
459 2 -3.17947 9.26079 21.9762 0.00329227 0.0747337 -0.0345997 
447 1 -3.40855 9.4302 20.9041 0.00171964 0.0108632 -0.00827926 
445 1 -2.38877 10.1281 20.0268 -0.00785171 -0.0236869 -0.0145695 
440 1 -4.82016 9.84541 21.15 -0.0214129 -0.02811 0.0140218 
457 2 -1.26553 10.0821 19.7649 -0.0408186 0.0416419 0.022029 
439 1 -2.89133 10.6505 18.9924 0.0177775 -0.0203059 0.0116987 
448 1 -5.02678 10.401 22.5189 0.00812277 0.0101815 -0.0112181 
460 2 -4.83263 10.0215 23.5752 0.0165567 -0.0177923 0.00547669 
434 1 -5.16542 10.8502 20.0154 0.0132153 -0.0120471 -0.00865732 
433 1 -4.55055 10.7549 18.8513 -0.0117422 -0.0171539 -0.0155328 
28 2 9.52557 -7.28418 26.8516 0.0466778 -0.0393534 0.0298587 
27 2 10.8941 -7.71042 28.1471 -0.0800683 -0.0507033 -0.0433691 
16 1 9.12195 -7.18333 27.8779 -0.0159016 0.00429834 0.00118797 
19 1 8.04598 -8.30318 27.7317 -0.00268593 0.00352981 -0.00287921 
31 2 8.79059 -6.09352 28.3015 -0.0141603 -0.0504956 -0.0969793 
8 1 10.2169 -7.38556 28.9808 0.00970191 0.00607847 -0.0115697 
10 1 8.48493 -9.67913 27.8371 0.0110268 0.00675727 0.00664737 
20 1 7.3914 -10.8128 27.3924 -0.00181428 0.0114279 -0.0160715 
4 1 9.35186 -9.93852 29.0993 0.0298236 0.0121599 0.0167761 
32 2 6.96701 -10.2447 26.5314 0.0574689 0.0643258 0.0948601 
15 1 10.4048 -6.24501 29.9993 0.00281435 -0.0058782 -0.000608649 
2 1 10.0485 -8.9024 29.6573 -0.00690593 0.00218063 0.0266605 
30 2 10.1355 -11.3946 35.3305 0.0123085 4.43785e-05 -0.00821877 
29 2 9.64184 -8.93539 34.7965 0.067279 -0.0310002 -0.0900061 
1 1 10.2282 -8.98166 31.0292 0.0330645 0.00468533 0.0156786 
6 1 9.16349 -11.2265 29.8372 -0.0326468 -0.00107435 0.00218267 
5 1 9.76794 -11.6044 31.1389 0.028571 -0.0033631 0.0169949 
3 1 9.9953 -10.363 31.8243 0.00349094 -0.00363961 0.0121469 
7 1 10.0577 -7.80411 31.9963 0.0336909 0.0224399 -0.00944961 
9 1 9.36661 -10.5054 33.2516 0.00215127 0.0240312 -0.0102017 
18 1 9.938 -11.566 34.2258 0.0107527 -0.0238952 0.00661271 
17 1 9.77769 -9.2432 33.7827 -0.00719012 -0.0287111 -0.00482922 
14 1 10.3011 -7.8391 33.5272 -0.0142002 -0.011274 -0.00983949 
26 2 10.8669 -7.28503 34.0455 -0.0175384 0.00931099 -0.079624 
13 1 10.0634 -6.42854 31.411 -0.00497284 -0.0210718 -0.00592781 
25 2 10.1158 -5.53227 31.9541 -0.0906307 -0.0171786 -0.037524 
215 2 -3.84741 -11.8357 13.2119 0.0647979 -0.00495158 0.0243003 
441 1 -4.16323 11.4821 16.6939 0.00776689 -0.0146058 -0.00246604 
462 2 -5.14058 11.9623 14.4694 -0.0733402 -0.00406131 0.075346 
442 1 -6.87711 11.939 21.5845 -0.00907414 -0.0247997 0.0235011 
537 2 -0.125028 33.7513 -1.53603 0.0437995 0.000894638 -0.0629769 
540 2 -0.589915 32.9254 -1.37484 0.0332675 0.095391 -0.0168671 
199 1 -3.19886 32.3975 10.4079 -0.0136574 -0.00319046 0.00610719 
207 2 -2.02914 28.5992 9.90883 -0.00656477 -0.0513733 0.0663413 
195 1 -2.26214 28.8197 10.9449 0.0107214 0.0103873 -0.0104594 
190 1 -2.93928 33.2531 11.596 0.00991534 0.0101099 0.00795677 
188 1 -2.79653 30.1241 11.0785 -0.00152425 -0.00417809 -0.00289444 
212 2 -4.33182 34.727 11.0721 -0.00607096 0.0795413 -0.0365433 
211 2 -3.65868 33 9.52035 0.0165418 -0.0114226 -0.0140113 
196 1 -3.31414 31.1125 10.2281 0.00886385 0.0093993 0.0241543 
200 1 -3.66129 34.545 11.963 0.0133532 -0.0183062 0.0288113 
208 2 -3.57474 30.5093 9.0576 -0.0147504 0.0226037 0.0713231 
392 2 1.63361 35.4706 3.21468 -0.0416119 -0.0252628 0.0230756 
205 2 -2.13638 27.0169 12.0048 0.0350651 0.0156494 0.0405827 
466 2 -7.68058 14.9707 17.0032 0.0411887 0.0253749 0.0230452 
465 2 -4.09993 14.2153 16.4402 -0.00171923 0.0529373 -0.00957016 
193 1 -2.21478 28.0373 12.068 0.00280934 0.00733492 0.00309364 
34 2 8.65188 33.3631 32.0334 -0.0788057 0.0232974 -0.00085757 
453 1 -4.91226 13.483 16.3308 0.013746 -0.0157264 0.0024399 
450 1 -4.54197 12.2823 15.3708 -0.0130746 -0.00767894 -0.040145 
443 1 -5.96161 13.99 17.2209 0.0146288 -0.00459614 -0.014411 
194 1 -1.09747 28.2484 14.179 -0.00817694 0.00729834 0.00153456 
187 1 -1.75223 28.8752 13.1587 0.00102158 0.0158132 0.0228529 
24 1 8.25453 34.6661 29.9662 0.00891833 0.0171275 -0.00965284 
33 2 9.83569 34.5996 34.7289 0.00779059 -0.00290102 -0.0387273 
206 2 -0.939844 27.1759 14.1959 -0.0840894 0.00685929 -0.0103416 
197 1 -0.0378944 29.0946 14.8393 -0.00232587 -0.0247379 0.0132559 
209 2 1.09467 28.9123 14.6631 0.0303489 -0.0320812 0.0194253 
192 1 -2.54658 34.735 14.0027 0.00936916 0.00449421 -0.0122159 
181 1 -2.00769 30.2277 13.2121 -0.0126124 0.00430725 -0.0072561 
186 1 -2.46477 33.2096 13.6944 -0.0237932 0.0171677 0.0173876 
183 1 -1.53611 31.0885 14.2964 0.0114101 0.00129024 -0.0362325 
185 1 -1.78507 32.4398 14.6758 -0.00856698 -0.00178491 -0.00480454 
202 1 -1.5349 34.0959 16.1111 -0.00305185 -0.000728751 -0.000607613 
204 1 -2.10092 35.2823 15.3093 -0.0323176 -0.00814146 0.000517083 
191 1 -1.83546 32.7246 16.171 -0.00269525 -0.0211263 -0.0244544 
214 2 -1.34009 32.4185 17.0739 0.0551698 -0.0696235 0.00560031 
184 1 -2.89957 32.3478 12.7543 0.0159235 -0.0208313 0.0150002 
203 1 -3.25003 35.2888 12.9993 -0.0159164 -0.0181602 -0.00197835 
182 1 -2.74697 30.8183 12.464 -0.0143391 -0.00894314 0.00611542 
213 2 1.76499 33.3394 15.5051 0.0358599 0.00763265 -0.0311707 
198 1 0.816082 31.3541 15.3621 0.00262344 0.022573 0.0118492 
189 1 -0.255182 30.496 14.7872 -0.00214439 0.0186495 0.00888248 
201 1 1.48538 32.2265 15.3176 -0.0360875 -0.0141244 -0.0077911 
454 1 -6.80325 15.1405 17.6534 -0.0126866 0.00652293 -0.00124313 
468 2 -7.84186 16.3152 18.8742 -0.0518172 0.0860519 -0.0529609 
444 1 -7.68776 13.9147 19.5952 -0.0346686 -0.00806361 -0.0326544 
456 1 -7.74576 15.2093 18.7627 -0.00890989 0.00586849 -0.0282697 
438 1 -6.74383 12.8614 19.3262 -0.00132207 0.0145263 -0.00158953 
467 2 -8.2494 15.0186 21.2895 0.0267978 0.0335485 0.0167038 
455 1 -8.08604 14.0281 20.9842 0.00115749 -0.0015739 0.0068496 
452 1 -7.84888 13.0966 22.1036 0.0093065 -0.0107746 0.00567196 
11 1 9.37266 35.266 31.9364 0.0138535 -0.016354 0.0160768 
437 1 -5.99872 12.8411 18.0707 0.00408583 -0.0105136 0.00561681 
464 2 3.59914 29.0265 17.5274 0.00994557 0.0263254 -0.0147783 
282 2 -1.07172 12.1482 23.9668 -0.0167057 -0.0524593 0.00695666 
35 2 6.95273 34.9607 27.3634 -0.00287445 0.0719053 -0.0778145 
36 2 8.24626 33.5647 29.6928 -0.0751025 0.06822 0.00828486 
12 1 8.34698 35.7867 29.2334 -0.0491435 0.000272752 -0.0261262 
21 1 9.66275 35.1957 33.5917 -0.0185716 -0.0077513 -0.0277461 
22 1 8.61698 34.3184 31.3991 -0.00528624 0.000571537 -0.00313494 
23 1 7.56067 35.8456 27.8591 0.0117087 -0.0412938 -0.0183167 
135 2 -0.214006 12.1136 23.8501 0.0195146 0.0346074 -0.0393787 
475 1 28.8591 -10.7242 -8.19222 -0.000772417 0.0280764 -0.00991868 
481 1 28.9985 -9.96644 -9.34047 0.00486374 0.0292036 -0.0224481 
469 1 29.9725 -11.0001 -7.32527 0.0124191 0.0127655 -0.0452862 
482 1 27.6423 -11.4353 -7.96746 0.0152979 0.00713447 0.015309 
108 2 26.9561 -11.8234 -8.72066 -0.0295074 0.045248 -0.0538565 
493 2 28.1327 -9.66459 -9.94341 -0.0296869 0.00283852 -0.107139 
483 1 30.1801 -9.56245 -10.191 0.00354943 0.0244557 -0.00545438 
484 1 32.7315 -10.5478 -9.64977 0.00258828 0.00873081 0.00958401 
496 2 32.3893 -10.5885 -10.8343 -0.0135808 -0.160371 -0.0213062 
499 2 34.8095 -9.76113 -9.78315 -0.0167427 0.0205135 0.0815182 
487 1 33.7184 -9.57139 -9.20483 -0.002885 0.00211508 -0.00646614 
478 1 33.329 -9.24471 -7.77529 -0.0412413 0.0264374 -0.00795021 
476 1 31.3928 -10.137 -9.43624 -0.00474158 -0.0104718 0.00439663 
472 1 32.438 -10.2736 -7.08663 0.00289329 0.000441607 -0.00386107 
470 1 31.223 -10.3483 -7.73945 -0.000533343 -0.0010915 0.0276763 
551 1 26.8027 4.84939 -7.68765 -0.0276954 -0.0183968 -0.0179636 
562 1 26.908 6.37713 -7.78422 0.0171807 0.0065843 0.0100232 
573 2 25.9251 3.76555 -9.21535 0.0886836 -0.000842915 0.0620504 
561 1 26.5334 3.58957 -8.40078 0.0068327 0.00341554 -0.0140511 
570 2 26.6819 1.45782 -8.82114 -0.00843718 0.0260037 0.0300913 
558 1 26.6808 2.19844 -8.0793 -0.00918357 0.00937901 0.00132958 
574 2 27.2405 6.51153 -8.94552 0.0149074 0.10075 0.0369536 
545 1 27.3143 4.38156 -6.17815 0.00748286 0.0174088 0.00120401 
549 1 27.3209 2.2652 -6.76362 0.00938313 0.00244123 -0.0225144 
567 2 32.9069 2.80836 -6.2222 0.00865525 0.0733754 0.081222 
553 1 33.0076 2.70081 -5.15866 -0.000587768 -0.00433943 0.0134737 
564 1 27.0094 7.50756 -6.77303 0.0169785 -0.0272927 -0.017896 
134 2 27.9743 11.2621 -1.84089 -0.0330418 -0.0113494 -0.0329513 
409 1 24.5906 10.8818 -11.6121 -0.0111415 0.0138062 0.00869903 
411 1 26.0903 11.0274 -11.1102 -0.00133597 0.000412498 -0.000427581 
404 1 26.8573 9.78228 -11.4053 -0.0148498 -0.0114403 -0.0290664 
412 1 27.6008 9.01806 -10.4023 -0.0221263 -0.0103759 0.00759041 
424 2 27.3004 9.10144 -9.3992 -0.0480979 -0.010165 0.0741592 
415 1 28.2009 7.87831 -10.821 -0.0208671 0.0209756 -0.0122564 
427 2 29.0032 7.29229 -10.2417 -0.0677707 -0.0353684 -0.0778068 
559 1 30.8556 6.49489 -2.8926 -0.00290557 -0.00417145 -0.00781462 
550 1 29.6588 6.78473 -3.84014 -0.0100944 -0.0191487 -0.0225546 
473 1 32.8683 -10.8482 -5.74394 0.0261472 -0.0113178 -0.0163098 
471 1 29.8427 -12.0143 -6.41973 0.0113993 -0.0166996 0.0191981 
490 1 34.9161 -10.0994 -4.56236 0.00338183 0.00974674 0.00789162 
138 2 29.5549 7.62773 0.605093 -0.0736816 0.0872687 -0.0660888 
571 2 31.8224 6.95544 -2.74118 -0.00491385 0.0616227 0.0155203 
480 1 33.7227 -10.3207 -4.80609 0.010265 0.00695401 -0.00780045 
503 2 33.7564 -8.67849 -6.96444 -0.0771952 -0.0339569 -0.0596009 
566 2 29.8678 -0.0917269 -6.34054 -0.0489708 0.129404 0.0695534 
139 2 22.2549 6.30849 -2.01729 -0.0479854 0.0426029 -0.060596 
131 1 23.9812 4.44391 -3.51588 -0.0012878 -0.00555996 0.0234707 
143 2 24.2227 3.71645 -4.46248 -0.0250687 -0.0336049 -0.0423037 
546 1 28.0436 5.52106 -5.71988 0.0111503 0.0112355 -0.0293669 
544 1 29.2626 5.81694 -5.05038 0.0027766 0.0121089 4.38835e-05 
120 1 24.8205 4.81055 -2.29713 -0.00965913 -0.0102186 0.000578939 
132 1 25.8288 3.91031 -1.6801 0.00227701 0.00692925 0.0222598 
144 2 25.2229 2.90488 -1.78753 0.0323412 -0.0789406 0.0164231 
543 1 27.9584 3.23275 -5.47727 -0.00214133 -0.0127233 0.011606 
541 1 29.3604 3.16313 -5.11523 -0.0054971 0.0108179 -0.017554 
557 1 28.3312 1.61902 -6.83668 -0.00318393 0.025988 -0.00101672 
554 1 29.5552 0.938365 -6.28056 0.00527022 0.0228521 -0.0314986 
547 1 29.9988 1.80559 -5.37758 -0.00599165 0.0198979 0.0310856 
142 2 27.244 3.33241 -0.30962 0.0522553 -0.101517 0.202898 
130 1 26.8195 4.23311 -0.947 0.0113215 -0.0148197 0.00468605 
542 1 29.6628 4.48377 -4.6075 -0.0117462 0.0108046 0.0204348 
141 2 29.0044 5.51518 1.12268 -0.115842 0.0793368 0.0474919 
119 1 27.4 5.57843 -0.70112 0.00524115 -0.0114537 0.00903188 
565 2 33.2392 1.91637 -4.43747 0.05273 -0.0166096 0.0216886 
569 2 30.8438 1.44784 -4.83242 0.109778 0.0167684 -0.0928328 
568 2 32.6405 5.04659 -2.17207 0.0384019 0.0451581 -0.057697 
556 1 31.6645 5.13362 -2.63068 -0.0109742 -0.0102246 -0.000492591 
548 1 31.1359 4.5666 -4.02652 0.01594 -0.0214305 0.0165644 
555 1 32.126 3.847 -4.64861 0.0375086 -0.00779637 0.0148683 
140 2 22.3014 5.03134 -4.61387 -0.00167985 -0.00962177 0.0164325 
128 1 23.0558 5.37517 -3.85931 -0.0215292 -0.00627315 0.00979705 
136 2 21.17 9.87324 -3.32083 -0.0641773 0.0490099 -0.0310553 
177 2 21.1251 7.56444 -4.00438 -0.0592237 0.0547894 -0.0710884 
133 2 22.6246 11.4196 -2.12619 -0.0295693 -0.0398106 -0.0657899 
123 1 23.7025 10.8752 -2.47181 0.0458594 -0.0113384 0.000659106 
116 1 23.5182 9.56751 -2.94117 -0.0296036 0.0158551 0.0252719 
112 1 24.2839 6.87885 -2.67338 0.01254 0.0114277 -0.00702183 
124 1 22.1618 9.21465 -3.29145 0.00827133 0.0173702 -0.018718 
127 1 21.9548 7.80488 -3.38636 0.00555131 -0.011656 -0.0115853 
118 1 22.8166 6.61752 -2.96841 0.0254698 -0.00408686 0.0178124 
576 2 26.8127 8.57672 -7.01475 0.00452177 -0.0724316 0.0161669 
110 1 24.3858 8.30935 -2.42809 -0.0260811 -0.00670809 0.0134309 
552 1 27.4286 6.99484 -5.59194 -0.0317212 0.0140901 -0.00412372 
563 1 27.7073 8.04904 -4.63231 0.0205909 0.0131012 -0.00529538 
575 2 27.7486 9.065 -5.19315 -0.0195891 0.0597555 -0.0204627 
560 1 29.1126 8.03052 -4.14121 -0.011396 -0.019861 -0.0252383 
572 2 29.685 8.88218 -3.68121 0.0105196 0.0418894 0.00713688 
121 1 25.0335 10.9884 -2.22696 -0.00720991 -0.00809946 0.0353906 
137 2 29.2494 9.89414 -1.10353 0.0467162 0.0453481 0.112458 
114 1 25.36 6.09063 -2.18716 0.000196049 -0.0135912 -0.0165883 
129 1 28.2441 6.02395 0.379888 -0.00130404 -0.0156473 0.0316419 
109 1 25.6263 8.58248 -1.85397 0.00348862 0.0048989 0.00106735 
115 1 26.1273 10.123 -2.09604 0.0180255 -0.0182363 0.0189515 
126 1 28.5157 7.45338 0.400371 0.020724 0.000497897 0.0139083 
122 1 27.5625 10.2452 -1.71141 0.0141966 -0.00381644 -0.00433018 
113 1 26.4049 6.29979 -1.05351 -0.0142844 -0.00426029 -0.00871644 
111 1 26.4669 7.76589 -0.99914 -0.00998991 0.00496723 -0.0281775 
117 1 27.5761 8.33282 -0.164582 0.024581 0.0127291 0.0222129 
125 1 28.2688 9.23167 -0.993502 -0.00986541 -0.0176192 0.0113421 
474 1 31.9214 -11.6052 -4.96109 -0.0206074 0.0227826 0.000937872 
423 2 25.9932 11.7725 -10.5618 0.0464752 -0.00648721 0.0516216 
101 2 21.401 5.53558 17.4216 -0.072302 -0.0598484 -0.0328823 
102 2 22.6429 7.77672 16.7138 -0.0277459 -0.0144299 0.0190982 
90 1 21.7216 8.20263 17.2401 -0.0164862 0.0051542 -0.00452036 
93 1 21.7874 9.50913 17.5736 0.0130773 -0.0039845 0.0142727 
422 2 21.8354 9.99057 35.4448 -0.0281864 0.147448 -0.00908392 
98 2 20.4893 4.01471 18.4246 0.0543986 0.00640158 -0.112556 
97 2 19.6802 3.73952 21.4353 -0.136682 0.0695259 0.0421163 
87 1 20.5267 5.14624 23.1376 -0.0115208 0.0150625 -0.00795014 
85 1 20.3516 4.6609 21.73 -0.0170465 -0.0149794 -0.0226242 
86 1 20.1484 5.11233 19.1608 -0.00166926 0.0115193 -0.00828182 
79 1 19.9849 5.57936 20.6898 0.00949796 0.018493 0.0315367 
73 1 20.5401 6.9076 20.5474 -0.0174041 0.00859921 0.0246787 
89 1 21.169 5.82583 18.4212 0.0121284 0.0283454 -0.00108231 
99 2 20.8971 4.33005 23.9471 0.0529243 0.0188996 0.00976488 
94 1 21.7251 11.6129 18.6303 0.000499781 0.0144401 -0.00476661 
81 1 20.969 7.34306 18.0643 0.0247273 0.00478928 -0.00275963 
83 1 21.1144 10.257 18.3122 -0.0116196 0.0099794 -0.00571836 
80 1 20.709 6.51669 23.0934 0.0174993 -0.0207786 0.032885 
75 1 20.5972 7.94745 19.4931 -0.0184366 0.0172259 -0.00346169 
74 1 20.553 7.40928 21.8314 -0.0302507 0.0115248 0.00614695 
77 1 20.8826 9.30774 19.5916 -0.00482625 0.0241046 0.00877336 
91 1 21.6594 8.64808 24.3175 0.00881772 0.00616375 -0.00488825 
92 1 23.0355 10.3021 23.2247 0.0155619 0.0109672 -0.000364115 
82 1 21.767 9.42141 23.0575 -0.0196942 -0.007473 0.00627705 
355 2 22.5046 8.21656 22.0501 -0.0483397 0.102613 -0.0013728 
78 1 21.497 9.66691 20.8398 -0.0116993 0.0091671 -0.0168558 
76 1 21.6278 8.65061 21.6433 -0.0380615 0.00732324 0.00493767 
84 1 22.5481 10.7091 20.8133 -0.0274799 0.00277959 0.00852951 
95 1 23.0847 11.2358 22.2481 -0.0116665 0.00254661 -0.00646286 
96 1 22.4813 11.4223 19.7541 0.0194717 0.0129508 0.0026628 
88 1 20.8425 7.57484 24.1852 0.0114384 -0.0205486 -0.0150757 
419 1 29.2558 6.88221 33.915 -0.0137778 -0.0243599 0.00375404 
104 2 23.4771 10.4873 24.1135 0.000881179 -0.160762 -0.0199263 
103 2 22.1287 8.81809 25.2175 0.0619825 -0.0320727 0.056631 
100 2 20.8582 7.09009 25.3445 -0.00847003 0.012083 0.0129568 
430 2 26.6799 3.79488 32.8935 0.0475395 0.0445547 0.0426904 
432 2 26.1251 4.49834 31.169 0.0348298 -0.000807303 -0.00627061 
418 1 26.712 4.47894 32.0433 0.0143627 0.0128391 -0.0148756 
420 1 27.2699 5.59464 32.6975 -0.0147493 -0.0237174 0.0354159 
431 2 29.8447 6.47122 33.1361 0.078311 -0.0252089 -0.0196958 
425 2 22.1037 10.6525 32.6711 -0.0302585 0.0113554 0.038437 
426 2 23.2316 9.71121 30.8141 -0.105884 0.0147395 0.00594223 
413 1 22.8204 10.8325 33.4918 0.00655777 -0.00739959 -0.00682665 
410 1 22.7147 10.4547 34.7982 0.00978207 -0.0144309 0.000352887 
428 2 30.2599 7.01037 35.6083 0.0135483 0.0723333 0.00329996 
403 1 24.0314 10.2725 35.1952 0.0122345 0.00296746 -0.00752542 
397 1 25.3897 9.66052 34.5876 -0.00216662 -0.0148551 -0.0292775 
405 1 23.9405 10.0663 32.8586 -0.0121542 0.00215517 0.00456799 
417 1 24.7795 8.63248 31.1962 0.00348468 -0.0147588 0.0159984 
414 1 24.1216 9.75019 31.4463 -0.0125343 -0.00121412 0.00365694 
407 1 25.74 7.71856 31.5004 -0.0174389 0.0148021 0.00944633 
399 1 25.2171 9.18036 33.3453 -0.010342 0.0155746 -0.0346853 
429 2 26.3482 7.06429 31.1 0.0176054 -0.0823072 -0.0793575 
401 1 25.9928 8.15655 32.8978 -0.00682691 0.0116372 -0.0128732 
402 1 26.8688 7.49202 33.8562 -0.0360436 -0.000761647 0.00559155 
400 1 26.9698 7.96349 35.129 -0.0178802 -0.00213754 0.02371 
408 1 27.8848 6.69643 33.465 0.0144426 -0.0119888 0.0112522 
398 1 26.348 8.98102 35.5499 0.0123963 0.0186268 0.00100848 
416 1 29.3149 7.092 35.1218 0.00214207 -0.0197268 0.000351173 
107 2 24.0829 11.7171 22.2664 -0.0202345 0.0606233 -0.105216 
406 1 28.1689 7.58348 35.67 -0.00630011 0.0076818 -0.00144204 
394 2 13.2525 18.0976 -10.7859 -0.00954515 -0.0196578 0.0084494 
485 1 27.3702 35.7995 -6.92991 0.00242644 -0.00521942 -0.0181214 
179 2 34.7624 29.2482 2.7742 -0.0390227 -0.0710525 0.0145359 
477 1 28.5741 35.5166 -6.32124 0.00852254 -0.00996161 -0.00216727 
488 1 28.3749 34.492 -5.20193 -0.0073641 -0.0166772 -0.00921605 
539 2 33.9041 29.4701 2.39563 0.0244128 -0.104709 0.0891362 
500 2 27.4825 34.1432 -3.397 -0.0324565 -0.0201036 0.0313676 
501 2 29.3274 34.1203 -5.13745 0.0533316 0.013496 -0.0128269 
491 1 27.7563 34.9481 -4.03736 -0.0117895 -0.000778779 -0.0120971 
479 1 30.561 35.7398 -5.16123 0.0151222 0.00716557 0.0147768 
497 2 30.2317 35.2777 -4.26114 0.119853 0.032974 -0.0527733 
421 2 15.1761 21.2259 8.62569 0.0241539 0.0720996 0.0791666 
494 2 26.4075 35.226 -6.91914 -0.0161333 -0.009795 0.0143042 
498 2 28.2588 35.909 -3.44467 -0.0678153 -0.0201933 -0.0427486 
106 2 22.0185 12.6032 18.0989 -0.0930581 0.049245 0.0246239 
262 1 55.4199 -9.54015 0.966271 -0.00772859 0.00433304 0.0191528 
64 2 47.329 9.51945 -11.7089 -0.0710266 -0.0660691 -0.0259883 
352 2 59.328 -1.62207 -8.97448 -0.120117 0.00630183 -0.0123657 
210 2 36.8083 -5.146 7.81651 0.00102348 0.00736014 0.0449789 
69 2 50.6284 1.42214 -10.4085 -0.00101165 0.0297217 0.0258343 
57 1 51.2221 2.76921 -8.79793 0.0231665 -0.0114165 0.00422681 
66 2 51.9104 2.09699 -8.25077 0.0233106 -0.0363159 0.0199982 
502 2 36.7366 -8.99297 -3.6061 -0.0201127 -0.0443145 0.0152368 
45 1 49.8726 3.44635 -10.8063 0.0162137 0.0378458 -0.00390161 
39 1 49.4713 4.68868 -10.1035 0.0276332 0.0273293 0.0269012 
54 1 50.7614 2.56244 -10.0755 -0.00245595 0.0190616 -0.0350313 
47 1 50.6437 3.94718 -8.17979 -0.0151062 0.00836554 0.00548462 
41 1 50.1168 5.17725 -9.01035 0.0294747 0.0109576 -0.0137999 
37 1 48.9866 5.54853 -10.8398 0.00788183 0.0185549 -0.0278885 
58 1 50.7659 4.60114 -6.88752 -0.00213657 0.0107998 0.00711398 
351 2 57.9912 -0.836851 -10.8071 -0.0686914 -0.0694445 -0.0214561 
339 1 58.7679 -0.443049 -11.5473 -0.00563923 -0.00313961 0.041214 
52 1 47.9029 9.163 -10.9436 -0.000933862 -0.00686698 0.0198743 
44 1 48.3462 7.782 -11.3888 0.0211987 -0.0042152 -0.0166402 
42 1 50.4071 6.47556 -8.63224 -0.00581303 -0.00437499 -0.00590067 
67 2 49.1583 10.514 -9.82165 -0.0371836 -0.0489612 -0.0117244 
55 1 49.1535 9.51513 -10.3033 -0.00640285 -0.00915816 0.0273165 
38 1 49.1507 7.07845 -10.4642 -0.00374453 -0.0282537 -0.0181048 
40 1 49.7549 7.69122 -9.18684 0.0158553 0.0229892 -0.0223878 
59 1 48.4119 8.89457 -7.63598 0.00515937 0.00131411 -0.0154493 
72 2 48.5625 7.83971 -5.88059 -0.00652132 -0.0451036 0.0567755 
56 1 48.9179 7.59513 -6.93038 -0.0245571 -0.00794558 -0.00681276 
48 1 49.8289 6.6266 -7.08632 0.00868479 -0.0212233 -0.00112664 
60 1 50.7863 5.95247 -6.2291 -0.0224537 -0.0228417 -0.00896048 
46 1 48.9992 8.88841 -8.84846 0.0114463 0.00303144 0.0202192 
68 2 48.0616 9.59798 -6.99398 -0.0414025 -0.0857414 -0.0312295 
489 1 36.8815 -10.878 -4.65131 0.00202366 0.0121623 -0.0222765 
486 1 36.9472 -11.7017 -5.51842 -0.000804487 -0.00218986 0.0200133 
284 2 57.3664 -8.26314 0.953714 0.0175592 -0.0349534 -0.0224975 
256 1 55.3091 -10.9731 0.667684 0.0165044 -0.0304263 0.0216247 
264 1 56.0283 -9.64728 -1.53324 0.00477846 -0.0172713 -0.0101575 
275 1 57.1941 -9.10914 -0.707189 -0.0102147 0.00146565 -0.00620498 
272 1 56.5355 -8.6413 0.437664 0.00578885 -0.00847521 0.0072506 
258 1 55.6303 -10.8457 -0.792681 -0.01629 0.00561376 0.00419171 
276 1 55.3847 -9.75422 -2.83633 -0.00532569 0.0212335 -0.0083399 
274 1 55.2673 -10.9705 -3.4237 0.00893569 0.0068074 0.00962269 
492 1 36.1643 -9.84228 -3.90936 0.0112771 0.0053172 0.00356719 
288 2 55.2171 -8.53817 -3.2121 0.0684476 0.0432858 -0.0455678 
287 2 57.8593 -8.34075 -1.32732 -0.0102695 0.105792 -0.00497021 
286 2 54.9927 -10.9795 -4.234 0.00294275 -0.0684851 0.0772279 
70 2 51.6894 6.3433 -5.74492 -0.0441906 0.0104854 0.0472815 
254 1 54.0725 -11.6165 1.24375 0.00571542 0.000161437 0.0374141 
268 1 52.9012 -9.57222 1.49876 -0.00815209 0.00749828 0.00327274 
271 1 54.1606 -8.80068 1.41429 0.0182132 -0.00539098 -0.0171453 
260 1 52.8869 -11.0044 1.89176 0.0220608 -0.0113467 0.00800477 
279 2 50.2307 -11.4267 2.04839 0.0408879 -0.00529664 -0.0586838 
267 1 51.478 -11.7126 2.23082 0.00598466 0.0135422 -0.0204109 
280 2 51.9134 -9.33536 1.70913 -0.109364 -0.0117133 -0.0134858 
283 2 54.291 -7.99133 2.02231 -0.00553544 0.00804201 0.0114204 
43 1 48.4165 5.39699 35.9769 0.00442282 -0.00979413 0.0140537 
49 1 47.6551 6.1575 35.1937 0.00583557 0.00786037 0.0118417 
62 2 48.229 4.11053 34.1246 0.0377742 -0.0552621 0.131096 
50 1 48.8095 4.28791 35.1039 -0.0104517 -0.0168726 0.0162234 
504 2 44.8537 -10.5743 32.229 -0.0014255 -0.0782224 -0.00283671 
337 1 58.9322 0.218402 35.1012 -0.00388742 -0.0134536 -0.0196845 
350 2 58.8165 1.89914 32.6363 0.0316613 0.0342688 -0.0337966 
61 2 47.0593 6.02935 34.1911 0.0166475 -0.108166 0.0279828 
63 2 47.553 8.2174 34.6725 -0.0980799 -0.0154742 -0.0418112 
51 1 47.9769 7.34056 35.3055 -0.0162087 0.04978 0.03459 
71 2 44.4906 -10.8499 32.791 -0.0817195 0.0490949 -0.0747893 
65 2 49.6391 2.3392 34.8973 -0.0763516 0.0259505 0.0123158 
349 2 58.2574 -0.0667663 34.2468 -0.0322589 -0.0439023 0.0592931 
53 1 49.3461 3.09175 35.7661 -0.00625694 0.0191935 -0.00877974 
338 1 59.8114 1.44927 33.1217 -0.0109957 -0.0139969 0.013215 
269 1 53.1248 32.6267 -0.621131 0.000724074 -0.0350193 -0.0168567 
261 1 53.8283 33.7046 -1.24816 -0.0184793 -0.0107995 -0.00561053 
281 2 53.0401 31.4104 -0.806101 0.0529019 0.0413666 -0.0100883 
255 1 54.3079 34.8096 -0.436696 0.0281101 -0.00820591 -0.00932834 
270 1 53.7214 34.0781 -2.65834 -0.00680166 -0.00360434 0.0188124 
285 2 54.7789 34.9372 -4.69365 0.042896 -0.124502 0.0240967 
273 1 54.6594 34.653 -3.52169 -0.0224401 0.00480904 -0.00966246 
278 2 51.0618 32.8317 0.288169 -0.0583724 -0.0435191 4.75309e-05 
265 1 51.6784 34.7842 2.17288 -0.0137209 0.0139438 -0.00250667 
259 1 52.6804 34.4919 0.92312 0.0147013 -0.017404 0.0203574 
277 2 51.3667 34.0759 2.83383 -0.0369612 -0.0596562 -0.0128374 
266 1 52.1375 33.1203 0.236948 -0.0272476 -0.00208215 0.00331566 
253 1 53.845 34.9283 0.827719 -0.00038919 -0.0068925 -0.0261063 
263 1 55.0151 35.8128 -2.61329 0.0164083 -0.000283905 0.0187899 
257 1 55.0419 35.9197 -1.13337 0.0307289 -0.0168965 0.00862689 
169 2 58.072 17.7546 22.4613 -0.0462399 0.0691605 -0.103604 
159 1 57.9411 17.1836 23.3585 -0.0124835 -0.01074 0.00278446 
171 2 56.1978 15.8431 22.6214 0.00344061 0.0232353 0.0274139 
157 1 56.8022 16.3987 23.476 -0.00845989 0.00909862 -0.00693004 
170 2 54.9998 14.9203 23.8292 0.013721 -0.0495019 0.0391457 
178 2 56.7932 15.6284 31.9649 -0.0272243 0.0796362 0.0304474 
534 2 43.8611 21.7406 19.1894 -0.0162228 0.0404303 0.0347068 
533 2 45.315 19.2004 23.0643 0.0508052 0.0329415 0.00682328 
505 1 45.9524 22.8345 24.1397 0.0327296 -0.00662368 -0.001933 
525 1 44.2752 21.7024 20.3038 -0.0209368 0.00611932 -0.0269755 
521 1 45.6985 19.986 23.403 0.0223146 -0.0161889 0.0214292 
518 1 46.4328 20.2622 24.5452 -0.00903373 -0.00264482 0.00685792 
509 1 45.1929 23.3134 21.9352 0.00314389 0.0045563 0.000675617 
507 1 45.5223 22.5101 22.9306 0.00647097 -0.0158903 5.9356e-05 
513 1 45.6961 21.0245 22.3557 -0.0239673 0.013303 0.0190328 
522 1 45.2796 20.9719 21.0768 0.01793 -0.0206619 0.00935876 
515 1 44.443 23.0805 20.5662 0.0176227 -0.0197948 0.00706066 
538 2 43.018 23.4879 19.38 0.00584409 -0.0234127 0.0202201 
508 1 45.1974 25.1281 24.072 -0.0234927 0.0202363 -0.013538 
510 1 45.0535 24.6325 22.6118 0.0166265 0.00635114 0.00415742 
516 1 43.9945 25.3223 21.8585 0.00445874 -0.00231218 -0.0308416 
528 1 43.4354 25.4747 20.3597 -0.0100155 0.0166804 0.0183527 
526 1 43.7224 24.1771 19.7711 0.033057 -0.0156579 0.00311276 
527 1 44.1144 26.7516 22.2458 -0.00299847 -0.003591 0.00556109 