ITEM: TIMESTEP
1120000
ITEM: NUMBER OF ATOMS
576
ITEM: BOX BOUNDS pp pp pp
-1.2000000000000000e+01 8.4000000000000000e+01
-1.2000000000000000e+01 3.6000000000000000e+01
-1.2000000000000000e+01 3.6000000000000000e+01
ITEM: ATOMS id type x y z vx vy vz 
395 2 6.61403 -6.5637 -8.88372 0.0170465 -0.0758266 -0.0431839 
392 2 7.84666 -7.70291 -7.2746 0.0448949 0.0568703 0.00578256 
383 1 7.1424 -6.91633 -6.95336 0.0153997 -0.00277342 -0.0173112 
380 1 6.36267 -6.32842 -7.84165 -0.028899 0.0067953 -0.0108521 
179 2 -1.38464 -4.80734 -11.6832 -0.0529062 0.0121405 0.00768287 
391 2 2.52066 -3.18862 -7.72699 0.00670868 0.00639216 0.0297627 
379 1 4.1473 -4.60784 -7.96979 0.00678647 -0.0140431 -0.01575 
376 1 3.4792 -3.58322 -7.38193 -0.0189694 -0.0173082 0.0177061 
370 1 5.47295 -5.26999 -7.38651 0.00983769 -0.0225834 -0.0101161 
396 2 7.73481 -8.78721 -2.70865 -0.0270059 0.00680827 0.0124155 
382 1 7.6762 -7.84293 -3.23056 0.00801779 -0.00311081 0.0103004 
384 1 8.10354 -7.46835 -4.5399 -0.00534936 0.00306637 0.0202977 
372 1 7.43573 -6.5754 -5.52733 0.0151713 -0.0108958 -0.0179288 
495 2 7.58793 -6.53099 -0.244909 -0.132216 0.000963368 -0.0560314 
381 1 7.10769 -6.38107 -1.26902 0.0110131 -0.00633278 0.0142779 
371 1 6.94586 -6.67248 -2.68357 -0.0174714 -0.0193025 0.0164185 
386 2 4.69278 -1.73674 -0.81377 0.0454767 -0.0384297 -0.00920102 
387 2 1.86104 -1.54517 -3.49345 -0.0961723 -0.00277156 0.042182 
369 1 5.53784 -4.36241 -1.63146 0.00210249 -0.00131317 -0.0135706 
374 1 4.51881 -2.50962 -1.91764 0.0133892 0.00864629 -0.00370584 
367 1 3.92709 -3.04283 -3.06985 -0.00815197 -0.00719301 -0.00113942 
363 1 5.79453 -4.617 -3.13832 -0.00819583 -0.00818971 -0.00912022 
361 1 4.815 -3.82478 -3.79922 0.00182155 -0.00536756 -0.00485949 
373 1 2.53546 -2.42611 -3.79622 0.0280436 0.0182296 0.0157346 
362 1 4.55261 -4.37657 -5.09655 -0.0293716 -0.0139435 0.00619423 
364 1 5.57538 -4.99592 -5.87592 -0.0032484 -0.00970834 -3.35372e-05 
375 1 2.66165 -3.18323 -4.87567 0.0135521 0.00574014 -0.00435291 
368 1 3.4505 -3.65005 -5.89758 -0.00176187 -0.010218 -0.0328749 
377 1 5.0598 -3.35394 -1.07422 0.0130672 -0.00197691 -0.00197483 
378 1 6.06519 -5.4136 -0.738166 0.0023549 0.00861257 -0.0067898 
365 1 6.62574 -5.56961 -3.71921 0.00408774 -0.000198886 -0.00734212 
366 1 6.38085 -5.94438 -5.08789 0.0131447 0.00267078 -0.0120019 
71 2 -8.37195 9.90474 0.844273 0.0253048 -0.0237439 -0.129222 
504 2 -8.87108 10.2379 1.57281 -0.0461537 -0.0322615 0.0265752 
540 2 -1.7599 10.1622 17.5489 0.0552762 0.0282402 0.00505021 
537 2 -1.61136 9.6885 16.8636 0.0181259 0.0181598 -1.26802e-05 
210 2 -4.24846 10.2678 19.3617 -0.0476419 -0.0169199 0.0326886 
284 2 -4.60093 10.9544 19.2913 -0.0231008 0.000554562 0.0856233 
256 1 -11.1824 -8.86912 29.2407 0.0200863 -0.0261878 -0.0209531 
268 1 -10.9413 -7.33577 26.832 0.0088046 -0.000772593 -0.0169139 
260 1 -9.57544 -8.14649 27.1769 0.00598075 -0.0137505 0.0137056 
254 1 -9.87856 -8.8099 28.4734 -0.0067993 0.01799 0.0060973 
280 2 -11.0509 -6.4396 26.3093 0.0431904 -0.02118 0.00192645 
279 2 -8.34411 -6.99859 25.8258 -0.0477623 0.0340791 -0.103354 
277 2 -6.39176 -7.03074 27.3445 -0.109371 -0.0504269 0.0539425 
265 1 -7.35349 -7.50189 27.5958 0.00697973 -0.0259972 -0.00671178 
267 1 -8.27493 -7.7712 26.6009 -7.06036e-05 0.025729 -0.0139441 
253 1 -8.54246 -9.35101 29.0157 0.00250219 -0.0100122 -0.0185726 
259 1 -7.22647 -8.80254 28.2992 -0.02412 0.00516278 -0.0183611 
269 1 -6.03231 -11.0459 29.1088 -0.00724296 0.000415108 -0.0299356 
266 1 -6.35442 -9.72954 28.5512 -0.00511682 -0.00207726 -0.0322166 
281 2 -5.26212 -11.7739 29.0997 0.0483378 -0.0937954 0.0217623 
286 2 -11.3378 -11.7792 33.3599 0.0229651 -0.111538 -0.0366874 
255 1 -8.17809 -10.1814 30.2484 0.0085618 0.0138287 0.0281306 
257 1 -9.43591 -10.1689 30.9313 -0.011438 0.0283231 0.00627107 
261 1 -6.96585 -11.0801 30.3747 0.0170172 0.0161891 0.00380098 
258 1 -10.8951 -9.69914 30.6084 -0.00298268 0.0121438 0.0191285 
274 1 -10.8334 -11.2444 32.5951 -0.0329977 0.0337731 0.0143924 
276 1 -11.5985 -10.535 31.5063 -0.00810854 0.0115586 0.014068 
270 1 -7.39594 -11.7008 31.404 -0.00543992 -0.00569606 -0.0263589 
263 1 -9.49083 -10.9783 32.063 0.00330716 -0.00590788 0.0212423 
273 1 -8.37962 -11.9668 32.1451 0.00269706 0.014045 -0.0110647 
539 2 -0.637956 -4.94518 35.74 0.117714 -0.00817516 0.0879336 
459 2 5.775 15.2252 4.42768 -0.0423489 -0.0754251 -0.0755457 
447 1 5.7135 16.2267 4.88098 0.00229442 0.000486309 -0.0142754 
440 1 4.32843 16.2387 5.26309 0.0343195 0.00131299 0.000810446 
460 2 2.81077 14.5577 4.4439 -0.117157 -0.0400401 -0.0187165 
448 1 3.33206 15.056 5.28521 0.0204979 0.0109788 0.0109611 
434 1 4.02845 17.5099 5.97849 0.00934514 0.021211 0.00119715 
445 1 6.20882 17.3763 4.41175 -0.0112672 -0.00119385 -0.0270873 
433 1 4.88974 18.6184 5.7629 0.0157549 -0.00613042 0.00137448 
441 1 4.64122 20.9196 5.99059 -0.0325172 -0.0299508 -0.0120368 
465 2 3.71387 22.8547 5.53291 -0.0169312 -0.0467628 0.0320563 
439 1 6.06747 18.5757 4.8015 0.0131289 0.0154668 0.0235948 
457 2 6.74238 19.3633 4.0779 -0.0738506 0.0271886 0.0284371 
463 2 1.70856 14.2253 6.64134 0.00161035 -0.0302163 -0.022103 
452 1 1.67048 16.1075 8.78123 0.0201156 -0.0224759 -0.010808 
451 1 2.47058 15.0268 6.57974 0.00428538 -0.0146806 -0.00651218 
442 1 2.20072 16.227 7.28903 0.00919669 -0.02022 0.000929187 
436 1 3.14965 17.2982 7.00179 0.0329443 0.0197893 -0.0135878 
467 2 0.913262 16.5663 10.5399 -0.0402003 0.0835334 -0.038181 
455 1 1.18953 17.1595 9.59175 0.00236908 0.0026622 0.0193121 
462 2 2.24203 22.7484 9.29383 0.0292117 0.00615015 -0.026771 
450 1 3.18914 22.5585 7.63705 0.00567443 0.014129 -0.000219084 
453 1 3.70218 21.9456 6.24904 0.0230723 -0.000363339 0.0189989 
438 1 2.89272 18.4663 8.04636 -0.00534161 -0.0215257 -0.00871238 
435 1 4.2882 19.7345 6.40784 -0.00750606 0.00862783 -0.018376 
437 1 3.41484 19.5177 7.77781 -0.0122269 -0.0235605 0.00689424 
444 1 1.72163 18.4673 8.92761 0.00390024 0.0272472 -0.00892418 
454 1 2.88294 20.3782 8.92823 -0.022495 -0.000714815 -0.0277272 
443 1 2.98103 21.8722 8.79264 -0.0100114 0.00383654 -0.00157457 
456 1 1.46461 19.9317 9.1496 -0.00422635 0.00116865 -0.0151569 
468 2 0.94937 20.7569 9.69531 0.0723986 -0.0725322 0.00972248 
461 2 3.0249 23.5673 7.42483 0.0070713 0.0423487 -0.0155023 
108 2 5.84094 29.9876 8.67239 0.0165809 -0.0360278 0.0266104 
475 1 5.82427 29.5752 7.76199 0.0011999 -0.0188283 -0.0155441 
87 1 6.59455 28.6349 7.3824 0.0226726 -0.0091216 -0.00243247 
100 2 9.22378 26.1252 7.34553 0.0814363 -0.0237755 0.12247 
80 1 7.79748 27.6258 7.30606 -0.0403644 -0.0242734 -0.021159 
85 1 8.77849 27.1808 7.31607 -0.0124248 -0.0100412 -0.0100654 
99 2 5.21331 30.2806 7.04113 -0.014656 0.020927 -0.0628594 
466 2 -0.171378 32.6564 23.6195 0.00680118 0.00623132 -0.057832 
105 2 -0.230036 32.0151 23.823 -0.0667996 0.0666957 -0.0242048 
170 2 -2.10676 23.3681 29.7643 0.0676463 0.0116303 -0.0270234 
464 2 11.4508 25.7121 26.0382 0.111793 -0.0963207 0.040894 
64 2 -2.18784 22.9725 30.2339 -0.0665044 -0.0888529 -0.0384012 
575 2 -8.47321 35.2894 32.9772 0.17257 0.0335365 -0.000174246 
285 2 -6.65779 35.4109 32.074 -0.0494022 -0.0449904 -0.0250129 
168 1 30.7345 -10.7431 -7.00335 0.0384267 -0.016814 0.0362539 
156 1 30.9773 -9.82476 -8.03283 -0.0103601 0.00777976 0.0430606 
180 2 30.88 -11.7247 -7.57796 -0.0475546 -0.00639919 -0.0252794 
232 1 16.1413 -11.7258 5.27971 0.0069646 -0.0123467 -0.0259752 
247 2 14.0706 -11.2695 5.92415 0.0676828 -0.0023161 0.0558919 
244 2 16.2411 -11.6697 4.16589 -0.0400351 0.0750994 0.0232012 
224 1 17.5531 -11.8016 5.70832 -0.0186877 0.033452 0.0137792 
243 2 18.4473 -10.799 3.89869 -0.0391816 0.0247084 -0.0403741 
231 1 18.7486 -11.3635 4.94714 -0.00664798 0.0233496 0.00190132 
241 2 20.9618 -11.2619 4.87481 0.0881322 -0.0559891 -0.0555662 
229 1 20.0199 -11.9006 5.37111 0.0120209 -0.00180931 -0.00920958 
318 2 17.1327 1.45411 3.47016 0.0969239 -0.00267141 -0.0864059 
389 2 16.9259 1.89125 3.88487 0.101721 -0.0352047 -0.00670328 
240 1 16.045 -11.804 11.7763 0.0154853 -0.00563863 -0.0103322 
388 2 13.8374 -10.6441 10.1279 0.0952288 -0.00662627 -0.000209455 
236 1 14.7837 -11.1177 9.53816 -0.0146121 -0.00622905 0.0195816 
239 1 14.2975 -11.0463 8.31389 0.0267621 0.0112889 0.0102259 
228 1 15.9444 -11.545 10.3099 0.0195785 -0.00239602 0.0180622 
251 2 13.3143 -10.6903 7.65244 -0.0475469 -0.0149347 -0.125566 
222 1 17.0594 -11.9071 9.35282 0.00176285 -0.0249644 0.0202114 
238 1 17.3936 -11.7135 11.926 -0.0124861 0.00406607 0.0136724 
226 1 15.6266 -11.5092 7.50771 -0.000728708 0.00440613 0.00283995 
235 1 15.0869 -11.7085 6.16929 0.00178805 0.0322163 -0.00348322 
357 2 17.419 -11.3982 13.0652 0.0166741 0.0777746 0.0967318 
252 2 15.3047 -11.1673 12.212 0.00441613 -0.00139749 0.0512926 
349 2 23.1743 5.33803 27.0867 -0.0480687 -0.0522525 -0.00553134 
351 2 25.7831 5.49416 28.5607 0.0472932 -0.101019 -0.0410793 
337 1 23.4704 6.20768 27.5904 -0.00650054 -0.00562216 0.0198252 
350 2 21.1286 6.72469 25.8625 -0.0209019 -0.0371012 0.0454156 
353 2 19.8756 9.09889 25.9927 -0.126447 0.0341094 -0.0282148 
338 1 21.2437 7.44627 26.6744 0.00314563 -0.0141711 0.00586397 
341 1 20.4977 8.64824 26.6758 0.0201249 -0.00914726 -0.0151125 
333 1 20.6592 9.36387 28.1125 0.00340245 -0.00575888 0.023148 
331 1 22.5594 7.2102 27.6942 0.00389499 0.0045203 -0.0138978 
327 1 21.9054 9.25448 29.0467 0.0151962 0.000510677 -0.00601728 
325 1 22.8463 8.19892 28.7175 0.00877579 0.0276668 -0.0145483 
342 1 19.7282 10.1167 28.7952 -0.00460071 0.0125379 0.00707552 
354 2 18.5941 10.2408 28.3616 -0.0385774 0.0159698 0.00854957 
345 1 20.1109 11.1032 29.7491 0.0186221 -0.00505079 0.00720713 
329 1 22.4205 10.3925 29.7075 -0.0297455 -0.00129859 -0.0300753 
216 2 19.0082 11.7167 29.8419 0.00586405 0.0204583 0.0427296 
339 1 24.9497 6.13692 28.3307 -0.0238744 0.00957119 0.00621981 
340 1 26.4591 7.05443 29.8089 0.0102759 0.00222331 -0.00278578 
332 1 25.4399 7.41209 28.7191 0.00817891 -0.0108186 0.00249331 
326 1 24.1845 8.18167 29.1438 -0.0223077 -0.0262483 -0.00937108 
135 2 20.4409 -4.58093 31.9481 -0.00328436 0.0198181 0.0607807 
282 2 21.0582 -4.39183 31.6375 0.0517999 0.0154136 -0.0718259 
330 1 23.7021 10.1837 30.354 0.000483155 -0.00155351 6.99962e-06 
335 1 21.3741 11.1186 30.4736 -0.021135 0.00932277 0.00417171 
346 1 21.9212 11.8707 31.5864 -0.00713955 0.0235891 -0.000939798 
348 1 23.2731 11.6258 32.0083 -0.00207541 -0.0103937 0.00713105 
360 2 23.3527 11.9793 33.0333 -0.0489897 -0.000866166 -0.0418076 
68 2 27.8617 7.64059 31.3954 -0.080652 0.0412749 0.0167485 
343 1 27.0481 8.1363 30.5962 -0.00839918 0.00246225 0.0226226 
334 1 25.9383 9.21662 30.7024 0.00813505 0.0148245 -0.00588331 
336 1 24.4949 11.0559 31.3402 -0.012011 -0.000780487 -0.00351606 
328 1 24.4681 9.17826 30.1111 0.00947176 0.0210686 -0.00672048 
356 2 26.8921 9.42173 32.8062 -0.0676735 -0.0709904 0.0182565 
344 1 26.2374 9.75092 31.9929 0.00202656 -0.0197442 0.00338573 
347 1 25.6455 11.1291 32.1678 -0.00161456 -0.00928242 0.0255249 
359 2 25.5431 11.8345 33.0775 0.0281644 0.0353729 0.0809857 
242 2 21.9601 34.3368 5.60852 0.0320553 0.0334581 0.0383385 
220 1 16.8856 35.6872 7.98205 0.011021 0.0241594 0.00625646 
218 1 17.7967 35.577 7.15622 -0.0323165 0.00834319 -0.0306697 
217 1 18.9587 35.1149 7.56776 -0.010851 -0.0137155 0.0129766 
230 1 21.8609 34.0422 7.84812 -0.0273254 -0.0156709 0.00688967 
221 1 18.1684 35.4012 9.76216 0.00975886 0.0153932 0.0121241 
225 1 20.9427 34.7045 8.82627 0.0205904 0.0019758 -0.00478668 
237 1 19.3893 34.8229 11.7535 0.0123607 -0.00298859 -0.00372492 
227 1 18.3012 35.551 11.1777 0.00363341 0.0162898 -0.00844167 
219 1 19.4902 35.2528 8.84583 -0.00452823 0.00678036 -0.00162623 
233 1 21.351 34.5158 6.48673 -0.0155082 0.00896631 -0.00754602 
223 1 19.9985 35.0249 6.36122 0.00839035 -0.0139434 0.016722 
249 2 20.3163 32.9463 12.7652 0.0418189 -0.0201434 -0.103359 
246 2 21.3117 34.4645 12.6694 -0.0645191 -0.0247988 -0.0477481 
234 1 20.4801 34.008 12.1128 0.0189478 0.00152266 -0.00449239 
458 2 12.7118 23.4897 27.9101 0.0738329 0.0512832 -0.00601762 
449 1 12.1422 25.3212 26.499 0.00459613 -0.004964 0.00896182 
446 1 12.6475 24.094 26.9852 0.00142895 0.0188874 0.00119719 
358 2 21.3543 12.7484 31.9178 -0.0237793 -0.0620324 0.0859283 
144 2 59.1041 5.05549 -4.32106 0.0432411 -0.00524138 0.0700924 
394 2 59.0443 4.97257 -5.1036 0.0693221 0.0430185 -0.0985379 
323 2 50.7634 -0.114883 5.01705 0.0282261 0.0154408 -0.0503798 
320 2 52.6153 -0.552679 5.50682 -0.0414757 -0.052251 0.055515 
324 2 52.3187 5.48668 3.88265 0.0987727 -0.10495 -0.150531 
294 1 51.775 0.127219 5.47942 0.00361026 -0.0381737 0.0147363 
312 1 51.6562 4.61294 4.16891 0.0187632 -0.00446538 0.00118602 
308 1 51.2848 3.88266 5.81301 0.00221581 0.0292501 0.00404623 
311 1 50.9938 3.5188 4.29179 -0.0215415 0.00869706 0.018681 
314 2 50.5675 2.7042 3.54756 -0.0270935 0.178728 -0.080713 
32 2 58.9167 -6.27126 10.7193 0.0753063 0.0155098 -0.0748299 
321 2 51.5135 -1.18637 10.0832 -0.0504882 -0.0164567 0.0916745 
293 1 52.1341 -0.965624 9.14301 0.0139715 0.032478 0.0227084 
316 2 51.4168 -1.15967 8.48319 -0.0599774 0.0731132 -0.0398032 
317 2 58.6593 -0.0159166 9.57672 0.0379287 0.0456499 -0.073504 
309 1 58.9581 -1.77649 10.5653 -0.0046203 0.00811893 0.0463263 
305 1 56.7934 -0.378895 10.8598 -0.0325581 0.0374928 -0.0275165 
297 1 58.2896 -0.537315 10.3443 -0.0196566 0.0224621 0.0216331 
35 2 58.4687 -2.15496 11.6102 0.036347 0.0600293 0.0136605 
20 1 59.2971 -5.25176 10.4171 -0.00697602 0.00207591 0.00392109 
23 1 59.7139 -4.60452 9.19743 -0.00541525 0.0284924 -0.0158132 
36 2 59.5343 -4.97238 8.0915 -0.000646263 0.0209264 -0.0133332 
10 1 59.8523 -5.13824 11.8943 -0.0212408 -0.00773208 -0.000826772 
289 1 53.0683 0.0509223 9.4545 0.00577555 0.000714226 -0.00326305 
296 1 53.4286 2.50235 9.56332 0.00641947 -0.00770438 -0.0351681 
304 1 53.7895 3.60095 8.68418 0.00998788 -0.0160668 0.00608906 
292 1 52.0832 1.85133 7.63345 -0.00309409 0.00150178 0.00804376 
290 1 52.6834 1.45072 8.971 0.0174361 -0.00719386 0.00658181 
298 1 51.6002 3.3665 7.138 0.0255098 -0.0214604 0.00732567 
307 1 52.9255 3.89719 7.63201 -0.00383138 -0.0264585 -0.0427489 
300 1 52.0357 0.903404 6.49518 0.0057848 -0.015098 -0.00738274 
319 2 52.9901 4.90924 7.14194 0.0159264 0.0772458 -0.0359906 
422 2 51.2202 5.68106 11.5151 -0.0598554 0.0347158 0.0678803 
315 2 53.0566 1.58107 11.9565 0.0608173 0.0385799 -0.0447338 
302 1 55.4384 0.401154 10.2239 -0.0181231 0.0196617 -0.0194515 
313 2 56.2076 2.1862 11.6336 0.0592345 0.0424898 0.035946 
301 1 54.0202 1.7996 11.1291 0.0113541 -0.00233841 -0.0150005 
245 2 54.0976 4.40833 9.46193 0.023468 -0.00718532 0.0607438 
295 1 54.1344 0.30433 10.5516 0.00584369 0.0202764 0.0125418 
303 1 55.1527 2.57206 11.7317 -0.0154973 0.0308689 -0.00384592 
70 2 47.5981 6.64528 9.94082 -0.0648265 0.0525625 -0.0815878 
420 1 47.5527 11.1808 8.73083 0.0315703 0.000338467 0.00166461 
417 1 47.985 7.22189 10.8154 -0.00814154 0.0212465 0.0230307 
405 1 48.076 9.96817 8.84327 -0.0257118 0.0100747 0.0114105 
401 1 48.5101 11.8271 11.2594 -0.00281096 -0.00113408 0.0243377 
136 2 49.232 7.28682 9.59072 0.00282288 -0.0668179 -0.0485475 
407 1 48.7141 8.23669 10.1554 0.0108864 -0.00238872 0.0107555 
414 1 49.1017 9.56067 9.87438 0.0156832 -2.3619e-05 -0.0151555 
430 2 48.0587 8.86706 8.37827 -0.043255 -0.041195 0.0651561 
399 1 49.3248 10.5531 11.1947 -0.00107084 -0.017786 0.00166601 
29 2 52.9714 6.18132 11.8378 0.0725423 -0.00151614 -0.0302899 
497 2 58.2541 -10.2123 12.9843 -0.0599594 -0.0846666 0.0104173 
31 2 59.343 -6.72462 12.5075 0.0287854 0.0160701 -0.0995196 
492 1 58.803 -9.71547 13.9086 -0.0102163 -0.0133297 -0.00753772 
33 2 57.7855 -10.2719 16.3813 -0.107971 -0.0365386 0.00819699 
287 2 58.0603 -9.64535 16.655 -0.0243248 0.0123254 -0.0253911 
486 1 58.8517 -9.02725 14.9635 -0.00282759 0.0373803 -0.00978934 
473 1 59.9584 -7.07404 16.9548 -0.0429966 0.0107581 -0.0189691 
489 1 59.7075 -9.54274 16.1259 0.00398419 0.0276796 0.00679201 
480 1 59.3995 -8.23607 16.5174 -0.00776343 0.0011328 0.0197276 
487 1 58.9173 -3.08122 15.5748 -0.000681212 -0.0218602 0.00263171 
502 2 58.0817 -2.80014 14.9101 0.0226874 -0.0191075 0.0363128 
155 1 59.3795 -0.862496 15.0356 -0.010888 0.0226072 0.00131079 
484 1 59.5189 -1.9612 16.1286 -0.00750557 -0.0268687 -0.00617098 
478 1 58.83 -4.64272 15.9856 -0.00881914 -0.0142097 0.024388 
499 2 58.746 -5.61156 15.2506 0.0222725 -0.00210195 0.0274468 
310 1 57.5288 -0.737145 13.2953 -0.0134162 0.00860113 -0.00923023 
472 1 59.7621 -4.69958 17.0813 0.0186664 0.00585676 -0.00368544 
291 1 57.2745 -0.8677 12.0727 0.00532061 -0.00133228 0.0166866 
19 1 59.931 -5.85552 13.1782 0.00233518 0.00108969 0.0209034 
390 2 49.2192 2.2867 13.9569 0.0407633 -0.00620769 0.00933897 
164 1 49.48 1.2708 14.1914 0.0257231 0.0125675 0.0130162 
393 2 48.7132 0.790202 14.7879 0.107967 0.0972531 -0.0139704 
166 1 52.3585 1.54606 14.1776 0.0112212 -0.00815124 -0.0163773 
167 1 50.9574 1.0209 14.3751 -0.00957562 -0.0240522 0.000920161 
154 1 53.3964 2.42168 14.4937 0.00111628 0.013687 -0.0183815 
163 1 52.4899 4.21263 16.262 -7.12002e-06 0.00499205 0.00731508 
160 1 53.5468 3.16168 15.6312 0.00403139 -0.00249461 0.00547847 
175 2 53.6307 3.88244 13.1941 -0.0795432 -0.061589 0.02383 
178 2 51.0686 5.14721 17.3225 -0.0599827 0.0499192 0.0951627 
299 1 51.4489 5.02932 16.2769 -0.00179707 -0.00286997 -0.000866869 
172 2 50.8432 5.15828 15.524 -0.0114133 0.00389699 -0.0600579 
322 2 56.7718 1.08287 13.7226 -0.0126316 -0.0271925 -0.0191527 
306 1 57.2612 0.119548 14.1691 0.0070467 -0.00443943 0.0383267 
173 2 58.8809 5.3567 16.2232 0.0174607 0.0267123 -0.0190162 
150 1 54.6474 3.22099 12.9778 -0.00903639 0.0096054 -0.0250476 
149 1 58.3096 0.00475799 15.2223 0.00439417 -0.00907772 -0.00933733 
147 1 58.4187 1.54186 15.5059 -0.000480318 -0.00517157 -0.0111059 
148 1 55.0896 2.34141 14.1337 0.0248058 0.00244598 -0.0112172 
146 1 55.9302 2.6928 15.6208 0.00206501 0.0139097 -0.0382798 
145 1 57.375 2.59232 15.6739 -0.0332435 0.00744527 0.0216465 
152 1 54.9076 3.47829 16.3593 -0.0125689 -0.0168374 -0.00954679 
157 1 56.7194 4.40113 17.5381 -0.0143047 -0.00474956 -0.00555443 
159 1 55.2658 4.3177 17.4568 -0.0126191 0.00761762 0.00465432 
151 1 57.5686 3.82637 16.5447 0.00159371 -0.0130746 0.0112558 
153 1 59.8226 2.0046 15.5494 -0.000211497 -0.0192593 -0.0242653 
158 1 59.0791 4.37908 16.6734 -0.0127538 -0.0132141 0.0248294 
161 1 59.9691 3.49944 15.8776 -0.00440413 -0.0087241 0.00639008 
404 1 47.5033 11.0337 14.5932 -0.00361149 -3.59116e-05 -0.0259791 
409 1 47.4614 9.45292 16.6729 0.000841677 -0.0141042 -0.0291886 
406 1 45.3364 11.2213 12.8014 -0.0203407 -0.00439799 0.0416671 
98 2 46.9849 6.29674 12.2143 0.101824 0.0351248 -0.0369342 
411 1 47.4272 10.2084 15.6484 -0.00953877 -0.0306322 -0.013489 
412 1 46.2547 10.7898 13.9494 -0.0016054 0.00520521 -0.0143448 
403 1 47.3265 7.30092 12.0594 -0.00161312 -0.00711665 -0.0405762 
427 2 45.576 10.6881 14.6759 0.0431211 -0.0029636 0.00151874 
423 2 46.8881 8.52121 17.16 -0.11449 -0.0301965 0.0165884 
429 2 47.1497 8.33388 12.5758 0.0370271 0.0402137 0.107835 
428 2 44.3746 10.6928 12.6444 0.087323 -0.0699432 0.0187251 
424 2 48.2196 10.2135 17.2782 0.065139 -0.0101274 0.0691418 
397 1 50.1822 10.1243 12.3138 0.0229325 -0.00398435 -0.00488861 
398 1 48.6619 11.7613 13.702 -0.00812001 0.0208013 0.0189438 
17 1 49.7383 10.8464 13.4308 -0.011234 -0.0120958 0.00345669 
413 1 51.3217 8.99769 12.2364 0.0232643 0.0212714 -0.0083387 
14 1 51.8779 6.47203 12.0366 -0.0210361 0.00633114 -0.00416277 
410 1 51.6892 7.64436 12.2573 0.0532001 0.00947126 0.0145962 
570 2 58.2043 3.79119 20.7215 -0.0837324 0.000138236 -0.00845369 
169 2 54.4405 4.65758 18.1816 0.0981394 -0.159937 -0.0461241 
385 2 58.0428 3.07261 20.2138 -0.0671144 0.0152036 -0.0167442 
171 2 57.4069 4.74767 18.4681 -0.0603322 -0.0679464 0.0297237 
65 2 51.3277 17.4344 -9.66356 0.0184258 -0.0250598 -0.00292518 
62 2 53.316 15.9689 -11.8571 0.0470571 0.0434706 -0.0413532 
69 2 47.3141 23.1823 -11.4849 0.00195507 0.00158565 -0.070404 
60 1 48.2245 22.2782 -11.4799 0.0244798 0.0182394 -0.0121251 
45 1 51.626 18.7355 -11.4483 0.0152279 0.00924463 0.0419586 
47 1 50.9974 18.3646 -10.188 -0.010112 0.00198565 0.0104911 
66 2 50.4209 19.007 -8.56358 0.0488478 0.0403699 -0.036851 
54 1 48.8484 21.5379 -10.4569 0.0011515 -0.00226352 0.00311363 
57 1 50.4324 19.5821 -9.67165 -0.017061 -0.00195152 0.004093 
58 1 49.789 20.3331 -10.8365 0.00666192 -0.00810235 -0.0146023 
533 2 43.7153 24.3595 -11.7841 -0.0216197 -0.0565156 0.0670878 
97 2 51.6868 27.7367 -0.205005 0.0173512 -0.0584839 -0.00504781 
82 1 46.0291 27.0878 5.32242 -0.0187684 0.00646843 0.000942999 
95 1 45.527 29.4795 5.87063 0.00428428 0.00551093 0.0267182 
92 1 45.1193 28.0861 5.81653 0.00398205 -0.000550766 -0.000162545 
78 1 47.3157 28.7679 4.34083 -0.0239752 -0.0017158 -0.0142633 
76 1 47.2014 27.3674 4.35026 -0.00803173 -0.025692 -0.00578718 
84 1 46.732 29.6755 5.28604 -0.00204749 0.016955 -0.0114945 
74 1 47.319 26.5052 3.18796 -0.011704 0.00319176 -0.010001 
355 2 47.1288 25.4849 3.28761 -0.0139077 0.0748689 -0.0054119 
91 1 43.437 27.7205 5.51274 0.0112891 -0.0169824 -0.0143966 
88 1 43.0687 27.377 4.64799 0.0236329 0.0220736 -0.00197143 
103 2 42.0614 27.4193 4.30769 0.0358632 -0.0979231 -0.0893793 
89 1 50.643 27.5618 0.371573 -0.0127646 -0.0139876 0.0232992 
81 1 49.6011 28.5015 1.22221 0.00223087 -0.00703951 -0.0191811 
86 1 50.0911 26.2345 0.621853 0.00374343 -0.0035297 0.00391812 
79 1 49.0857 25.3299 1.13189 -0.00336419 0.0129638 -0.0149089 
75 1 48.6318 27.9513 2.33502 0.00861681 -0.0103084 0.0350276 
77 1 48.466 29.0052 3.50217 -0.0131735 0.0239189 0.0095513 
73 1 48.5533 26.5958 2.39033 0.00500533 -0.000409969 -0.0149524 
90 1 49.4824 29.9605 0.871321 -0.0126844 0.000117674 0.0219684 
96 1 47.5678 31.0401 5.28113 0.000400055 0.022413 0.00293197 
94 1 48.3687 31.3527 4.05621 -0.0137966 -0.0139214 0.0251812 
102 2 48.7403 32.378 3.763 0.0285471 -0.0227475 0.013182 
101 2 49.6061 31.5359 2.57832 0.0472924 -0.0299097 0.0225257 
93 1 48.9753 30.9409 1.895 0.0210687 -0.00938423 -0.00988955 
83 1 48.3347 30.1771 2.92738 -0.0223366 -0.0166269 -0.01154 
408 1 47.772 12.7165 10.3148 0.00552217 0.0340912 0.0280846 
418 1 47.0861 12.4965 9.03304 -0.0245544 0.0102898 0.0164235 
250 2 45.9819 12.3377 9.3019 -0.0123764 -0.0517655 -0.0719449 
431 2 45.0971 13.4339 10.2869 0.0562767 -0.0575003 0.0251813 
503 2 45.767 16.5477 10.6351 -0.0554477 0.0526773 0.0440235 
104 2 46.2408 16.1402 10.7646 0.0460554 0.0347071 -0.0450117 
419 1 45.5568 13.2945 11.2841 0.0114509 -0.0149764 0.00252738 
107 2 44.9367 30.2721 6.31575 -0.0808087 -0.0501885 0.0115247 
106 2 47.5923 31.6021 6.27359 0.0115525 -0.09517 0.0849524 
485 1 37.0287 14.4701 16.1766 0.0084576 -0.0153211 -0.0275668 
482 1 36.6476 15.2794 17.1254 -0.00280203 -0.00111701 -0.0143281 
494 2 36.0548 16.1903 17.2958 -0.0342066 -0.04363 -0.0599502 
498 2 37.4534 13.7733 17.1205 0.0258789 -0.0563481 0.174822 
416 1 45.4312 12.3395 12.0974 0.00519188 -0.0109844 -0.00524276 
425 2 50.1911 15.2816 14.2334 0.085892 0.00994306 -0.0738149 
400 1 48.944 13.9613 13.0482 -0.0128745 0.0240065 0.00576281 
426 2 49.872 15.4346 12.4848 0.0663051 -0.0205517 -0.0683102 
402 1 49.299 15.1192 13.5404 -0.0143046 0.018179 -0.00674277 
415 1 48.6565 12.7299 12.5594 0.0176831 0.0169667 0.0201151 
524 1 40.7042 20.58 29.076 -0.00126601 -0.0175218 -0.0337017 
514 1 41.3252 22.1809 29.184 0.0195343 0.00396863 0.00179042 
536 2 41.1273 23.6345 27.4837 -0.0587679 0.0217088 -0.0151353 
523 1 41.5588 23.444 28.4225 0.00149868 -0.0247318 0.0203284 
527 1 41.8621 20.0039 29.6237 0.00792235 0.0113612 0.0191323 
248 2 49.4862 18.6292 27.2874 0.0486532 0.0251383 0.0170411 
176 2 50.1302 19.0019 27.11 -0.0524026 0.0235805 -0.0178485 
535 2 40.3555 25.3978 28.8448 0.0538975 -0.00113967 0.0119804 
520 1 40.9529 24.5435 29.1933 -0.000442866 -0.00166847 -0.00905978 
52 1 47.7035 17.2995 31.5578 0.0025357 0.00831837 0.0295231 
53 1 53.6304 15.7998 35.0703 0.00171081 0.00204125 -0.0164123 
63 2 48.5318 16.3785 30.0616 0.0087175 -0.0530555 0.0513587 
61 2 51.4434 15.5708 34.9025 -0.0180876 -0.0103041 0.041465 
50 1 52.3955 16.1017 34.3406 0.00951375 -0.0020601 -0.00644826 
43 1 51.8161 17.1412 33.5327 -0.0177681 -0.0106612 -0.019362 
49 1 51.4894 16.6454 32.0651 -0.0102944 -0.0205939 -0.00803552 
44 1 50.0231 16.855 32.0784 0.0274072 0.0111097 0.0077861 
51 1 48.8059 16.5398 31.252 -0.00912901 0.000127182 -0.004802 
37 1 50.7233 17.8816 34.0916 0.00779366 0.0118256 0.00689601 
38 1 49.539 17.8568 33.2374 -0.00483698 0.0175669 -0.0100703 
508 1 41.6564 22.0709 30.6367 -0.0179803 0.0044901 -0.00102892 
510 1 41.5017 21.0892 31.6822 -0.0166433 0.00689298 0.0151184 
509 1 41.6774 21.6571 32.9445 0.0128568 0.0102081 0.0189883 
507 1 41.7396 22.9856 33.6327 -0.000697563 -0.00744842 -0.0135856 
506 1 41.7221 23.3832 31.2965 0.0247692 -0.0100781 -0.0138957 
505 1 42.5166 23.7007 32.5576 -0.0356795 -0.00631506 -0.0117666 
534 2 44.3397 21.1649 35.049 -0.100406 0.0177826 -0.0556126 
516 1 42.0694 19.8873 31.1611 0.00369858 -0.00250529 0.00853391 
522 1 42.6964 23.1279 34.7401 0.0210524 -0.0139184 0.000991913 
538 2 44.1489 18.9671 33.3224 -0.00258989 0.0356578 -0.0194527 
526 1 43.6427 19.7833 32.983 -0.00952057 -0.0380864 0.003651 
525 1 43.4396 21.9714 34.771 -0.023355 -0.0136 0.0165019 
515 1 43.0283 21.1694 33.5992 0.0145277 -0.0112746 -0.0161046 
528 1 42.8084 18.9719 31.9998 0.0085702 0.00388693 0.000940542 
67 2 45.7178 18.156 32.5711 0.0147515 -0.020866 -0.0166475 
55 1 46.7968 18.2433 32.1675 -0.0103395 0.00935652 -0.0333943 
72 2 47.7088 21.7492 32.3281 0.0102951 0.0154862 0.0216693 
59 1 47.4619 20.9665 32.9981 -0.00896673 -0.0263161 0.0140338 
56 1 47.5696 20.9302 34.5042 -0.0130093 -0.0259518 -0.000244166 
46 1 47.5763 19.5239 32.3983 0.0150992 0.00103014 -0.0162472 
48 1 47.7555 21.8152 35.5109 -0.0123461 -0.0084695 0.0076552 
41 1 49.616 19.4935 35.7254 -0.0208378 0.0100607 0.0110626 
39 1 50.6079 18.4689 35.4141 -0.00948541 0.00898039 0.0151201 
42 1 48.8894 19.8821 34.5862 0.0349168 -0.00282862 -0.0204097 
40 1 48.5289 18.9001 33.4927 -0.0231278 -0.016111 0.00518859 
519 1 41.0106 26.0359 31.2027 -0.0104117 -0.0168507 0.0211132 
518 1 41.7122 25.5927 34.1395 0.0062519 -0.00681089 0.0053572 
531 2 41.7427 27.2069 32.67 -0.037724 -0.0562849 -0.047321 
529 2 41.3321 26.6796 34.0724 -0.0932256 -0.0498713 -0.0362518 
512 1 41.0667 24.5511 30.6291 -0.00544461 -0.0027555 -0.0083637 
517 1 42.0861 26.2261 32.0953 0.0132925 -0.00935489 -0.0199275 
511 1 42.179 24.9816 32.9439 -0.00251423 0.00661963 -0.0147956 
513 1 42.9868 24.1611 35.5375 -0.00323209 0.0138987 -0.0202282 
521 1 42.028 25.2489 35.5117 -0.00869381 0.00916269 -0.018128 
530 2 42.0509 26.3096 35.9952 0.0810812 0.0406669 -0.0903015 
211 2 65.7253 5.87083 -10.9228 0.0475264 -0.00537112 0.0199165 
212 2 73.9246 5.94091 -7.21142 -0.00296841 -0.031642 -0.0537906 
208 2 64.2063 10.421 -11.2908 -0.0210771 -0.0362067 0.024968 
193 1 65.1161 10.218 -11.8968 0.0149772 -0.0193606 0.00681525 
215 2 70.7928 6.02082 -9.76171 -0.0632768 -0.0122367 0.149766 
196 1 66.5623 6.5612 -11.3146 -0.0185062 0.0152437 0.00181097 
188 1 66.5394 7.96653 -11.6415 0.0111917 -0.00155034 -0.0344391 
185 1 70.0005 9.92595 -11.827 0.0197034 -0.00648669 0.010272 
199 1 67.7075 6.21922 -10.4901 2.70634e-05 -0.0106472 0.0156867 
190 1 68.8842 7.14259 -10.4441 0.00907723 -0.0109555 -0.0238414 
200 1 70.277 6.78806 -10.3998 0.020477 -0.0163384 0.016181 
203 1 71.1958 7.83767 -10.3942 -0.0102447 0.000225499 -0.000750096 
186 1 70.0674 8.90123 -10.8866 -0.0041493 0.0179788 -0.0102176 
184 1 68.7701 8.5538 -10.7824 0.0193259 -0.0164803 -0.011868 
182 1 67.7299 8.75165 -11.6826 0.040986 0.00985985 -0.00476045 
192 1 72.2791 7.46204 -9.79042 0.0357168 0.000940716 -0.000368501 
202 1 73.0515 6.6492 -9.18801 -0.00701463 0.00164335 0.00698833 
204 1 73.9133 6.24149 -8.25827 0.0161153 -0.00555913 0.00139655 
139 2 74.6481 -0.108385 -0.486174 -0.0307047 -0.00127519 0.0646238 
120 1 80.9771 -0.603839 -0.263895 -0.0214564 0.0154004 -0.016736 
115 1 75.3541 0.643763 -0.0594753 0.000595317 -0.0124102 0.0105852 
121 1 75.5282 2.0308 -0.405605 -0.00234686 -0.000710408 -0.00884955 
123 1 76.3696 2.92953 -1.11719 0.00379347 -0.00192716 0.00893968 
496 2 76.0766 3.73507 -1.98556 0.0390619 0.0662545 0.0409022 
116 1 77.6635 2.33889 -0.793917 -0.00172713 0.0203747 0.016453 
124 1 78.6629 3.42009 -1.06987 -0.052475 -0.00635932 0.0146122 
112 1 79.2496 1.05731 -0.0337549 -0.0191946 0.0178061 -0.00532232 
127 1 80.0203 3.02994 -1.17698 -0.00266675 -0.0120568 -0.0305124 
128 1 81.6723 1.66892 -0.161782 -0.0243722 -0.0100613 0.00292971 
118 1 80.3843 1.96578 -0.328872 -0.0370292 0.000867549 -0.00425898 
140 2 82.315 2.4424 -0.482291 -0.000508485 0.0439254 0.0221874 
205 2 80.6308 3.97623 -1.17496 -0.0201582 -0.0287513 0.0448973 
131 1 82.0009 0.341117 -0.0953807 0.0201508 0.0124947 0.0187157 
138 2 75.7162 -3.57501 1.90681 -0.0192192 -0.0377379 0.0637337 
122 1 73.9949 -1.69101 1.05806 0.0168871 0.00618106 0.0164117 
126 1 76.7847 -3.51757 1.30722 -0.0201479 -0.0211119 -0.00538068 
125 1 75.0475 -1.77668 0.841704 -0.0113056 0.00411016 0.0242397 
117 1 76.2847 -2.11393 0.880323 -0.0216072 -0.0123767 0.0276921 
134 2 73.1308 -1.53402 2.08422 -0.0672256 0.0113011 -0.0285488 
111 1 77.1832 -0.944815 0.667296 -0.000140181 0.0170914 -0.0103572 
141 2 78.4429 -4.68683 1.60137 0.0163277 0.0908358 0.0378188 
113 1 78.7524 -1.07949 0.412068 -0.0312586 -0.0248267 0.00982515 
129 1 78.064 -3.74299 1.11486 -0.00712216 0.012199 0.0110093 
119 1 78.8437 -2.47028 0.311155 0.00263228 -0.00241004 0.0204919 
142 2 80.6447 -3.48708 1.84663 0.147902 -0.0523584 0.0266501 
130 1 80.2814 -2.8875 0.898924 -0.0111576 -0.00119433 -0.0153122 
114 1 79.8419 -0.130894 0.00369336 0.0125458 5.79852e-05 0.00342475 
132 1 80.9398 -1.9905 0.268221 0.0100773 0.00867543 -0.014552 
109 1 76.902 0.340955 0.276061 -0.012816 -0.000876601 -0.0302226 