ITEM: TIMESTEP
180000
ITEM: NUMBER OF ATOMS
576
ITEM: BOX BOUNDS pp pp pp
-1.2000000000000000e+01 8.4000000000000000e+01
-1.2000000000000000e+01 3.6000000000000000e+01
-1.2000000000000000e+01 3.6000000000000000e+01
ITEM: ATOMS id type x y z vx vy vz 
48 1 9.89041 -8.88309 -7.69486 -0.0170461 -0.0121365 -0.0176293 
72 2 8.80273 -10.6675 -7.80911 0.0117737 0.00471116 -0.0276235 
60 1 9.02176 -9.79418 -8.40177 0.00649801 0.00762067 -0.0076839 
58 1 8.20552 -9.39207 -9.52711 0.00860656 -0.0196999 0.0252225 
70 2 7.86663 -10.1598 -10.2611 -0.0328588 0.0422563 0.0785838 
47 1 8.24146 -7.88291 -9.60692 -0.00868523 -0.00594966 0.00515899 
42 1 9.49874 -7.46414 -7.45953 0.0110206 -0.0148779 -0.021246 
41 1 8.67824 -6.87693 -8.62579 -0.0116416 -0.0105459 0.00492305 
40 1 9.81758 -6.54251 -6.31565 0.00930656 -0.015336 -0.000759774 
57 1 8.42709 -7.66945 -11.1117 -0.0115973 0.00995344 0.0102784 
39 1 8.67351 -5.45707 -8.77766 0.00886724 -0.0264684 -0.0178559 
54 1 8.86188 -6.28709 -11.1848 -0.00536622 -0.0284045 -0.0326834 
45 1 9.37024 -5.33055 -10.234 -0.0131771 -0.0112272 -0.0137003 
37 1 9.01652 -4.65133 -7.59867 0.0129464 -0.00712489 0.00712808 
43 1 9.00714 -3.41395 -8.21822 -0.00230839 -0.0122685 0.00248053 
53 1 8.95994 -3.85741 -10.2708 0.0180114 -0.0184554 0.00358417 
65 2 8.12912 -3.47534 -10.9326 -0.00637542 0.0660704 0.118205 
50 1 9.5542 -2.7615 -9.47871 -0.0120954 0.00175794 0.0157299 
62 2 10.5666 -2.3995 -9.17256 -0.0716505 0.0366062 0.0198587 
49 1 8.65801 -2.58505 -7.06909 0.0160111 -0.0039586 -0.0118909 
61 2 8.17085 -1.72596 -6.98835 0.00119018 0.0100688 -0.0724499 
434 1 -11.8034 6.75641 -0.938649 -0.00770205 -0.0255372 0.00436247 
253 1 6.06786 8.296 11.0095 -0.00872334 -0.00727225 0.0225096 
467 2 -11.4684 4.61663 -6.12002 0.00536276 0.0587514 -0.0232878 
59 1 10.4571 -9.11333 -6.40357 -0.000851799 0.0222389 0.00102418 
68 2 11.5733 -9.72966 -5.49687 0.0150666 -0.0356656 -0.0488688 
56 1 10.9039 -8.41672 -5.3209 0.0026587 0.0262012 -0.025834 
46 1 10.4984 -7.02824 -5.22674 0.0105834 -0.00676733 -0.0243673 
67 2 11.7193 -6.59351 -3.45997 0.0909848 0.0431497 -0.0548534 
55 1 11.0071 -6.04414 -4.16564 0.00147863 0.0261085 0.0237483 
63 2 9.08826 -1.91154 -5.17486 -0.0416381 0.080518 0.0612287 
38 1 9.51729 -5.1314 -6.3126 -0.0213895 -0.0124589 0.00580193 
64 2 11.2141 -3.93922 -3.93087 -0.0328539 0.0694969 0.0824033 
51 1 9.22409 -2.76434 -5.61239 -0.00456272 -0.0104624 0.00907358 
44 1 9.89408 -4.17467 -5.29544 -0.00789763 0.00672161 -0.0186843 
52 1 10.6977 -4.73659 -4.18066 -0.0093698 0.00724154 -0.000898109 
468 2 -8.6293 4.36088 -5.32294 -0.0609006 -0.00771612 -0.0119815 
454 1 -8.10271 4.45996 -3.33108 0.0112502 0.0195404 0.0197994 
443 1 -8.20852 5.07717 -1.85148 -0.00204961 0.0055027 -0.000941325 
466 2 -7.0656 4.36002 -3.90626 0.13288 -0.00701351 0.0395843 
435 1 -9.76418 5.81941 -0.0572107 0.0159558 -0.00563183 0.00308211 
453 1 -7.21945 4.64638 -0.758184 0.00829211 -0.0057885 -0.00115371 
465 2 -6.28425 3.99138 -0.920979 0.00855734 -0.0694148 -0.0650043 
456 1 -9.10882 4.29831 -4.26171 0.00953375 -0.0174756 0.00227155 
437 1 -9.49448 5.53922 -1.53982 0.000621071 0.043238 0.0335133 
450 1 -7.4758 4.71774 0.50598 0.000731926 0.014546 0.0105795 
444 1 -10.2351 5.09075 -3.95582 0.00919768 -0.0095057 0.000312112 
433 1 -10.955 6.43712 0.293369 0.017683 0.029119 -0.0422211 
438 1 -10.4597 5.63448 -2.58861 0.00234366 -0.0107682 0.0153237 
455 1 -11.39 5.24539 -5.13543 0.0165447 -0.036315 0.00829365 
441 1 -8.6914 5.47717 0.914488 -0.00351576 0.0170883 0.00444777 
462 2 -6.61772 4.89221 1.39837 0.0169659 0.0450516 0.0150649 
461 2 -8.30355 4.89822 2.77835 -0.0815847 -0.0587343 -0.0180243 
446 1 -10.5056 6.14215 2.7305 0.0199046 0.00271757 0.0281474 
179 2 -8.07105 9.29867 4.95209 0.00704311 0.0335963 -0.00231407 
449 1 -9.14821 5.57859 2.21453 0.0114934 0.0169719 -0.0125052 
458 2 -11.3023 5.61983 3.37468 0.0273082 0.00842734 0.0674704 
439 1 -11.2038 6.67015 1.56188 0.0104266 -0.0169839 0.00545764 
277 2 4.99149 5.99271 9.01159 -0.112199 0.120076 0.0681384 
278 2 6.27349 4.95974 10.4653 0.00136866 0.0211444 0.0567304 
262 1 4.43881 11.4233 10.3447 0.0162896 -0.00139093 -0.00452505 
280 2 4.75133 9.70795 7.17466 -0.0402329 0.113923 -0.00526196 
256 1 4.83226 10.3532 11.0493 -0.00365298 -0.00916817 0.0168013 
267 1 4.64247 7.92661 8.36996 -0.0027157 -0.0153374 -0.00613759 
254 1 5.21357 9.21979 10.4882 0.011607 0.000841503 0.021647 
266 1 6.48605 5.92303 11.0085 -0.0335942 -0.0130481 0.0137223 
260 1 4.92626 9.19031 9.05922 -0.00333342 -0.000966255 0.00318003 
268 1 4.99621 10.133 8.17362 0.00851883 0.00617775 -0.00578365 
271 1 4.97719 11.361 8.96433 0.000992836 0.00976163 -0.000359977 
279 2 4.00053 7.52658 7.41695 0.00281208 0.00121903 -0.0552678 
265 1 4.989 6.98854 9.57837 -0.0143781 -0.0197214 -0.00173022 
436 1 -11.7753 6.17427 -2.31157 -0.00253714 -0.017531 0.0158574 
259 1 5.71811 6.96957 10.6534 -0.0233659 0.00735017 0.0129114 
69 2 7.64574 -7.7597 -11.8879 0.0335153 0.0552977 0.00707609 
283 2 5.90974 11.9389 8.83871 0.0462862 -0.00948823 0.0242213 
341 1 10.6839 -8.45724 15.758 0.00278266 0.00233881 0.00218438 
333 1 10.3689 -8.59535 17.1276 0.0136056 0.00854083 -0.00520843 
353 2 10.2139 -7.68927 15.0566 -0.0025343 0.0154488 0.018189 
338 1 11.7435 -9.20808 15.231 -0.0105247 0.0187606 0.0159991 
258 1 4.98678 10.1984 12.5938 -0.00894219 -0.000661941 0.0181406 
325 1 11.6295 -10.8876 16.9421 -0.00550457 0.0133154 -0.00461034 
354 2 9.58187 -6.65036 17.1458 -0.0201145 -0.0724102 0.0092474 
342 1 9.40613 -7.67427 17.5759 0.00424827 -0.00517109 -0.0155107 
327 1 11.0145 -9.92378 17.6688 -0.0293086 0.013796 0.0123774 
330 1 10.4289 -11.6066 19.2435 -0.02351 0.0210668 0.00291012 
282 2 7.68567 5.98798 14.8569 0.054005 0.0704298 0.0115881 
281 2 8.26748 5.41738 12.5453 0.190881 0.00345965 0.0707309 
274 1 5.52828 10.2942 15.2919 0.00183214 -0.023764 0.00774304 
286 2 5.78736 10.6375 16.452 0.0470875 0.0180644 0.116728 
263 1 6.1513 9.08931 14.6483 0.00243225 0.00206682 0.00394194 
285 2 6.44606 8.10838 16.1645 -0.0226624 -0.00487773 0.0740649 
273 1 6.65573 7.96009 15.1405 -0.00488553 0.00375412 0.0132396 
257 1 6.10797 9.41108 13.2575 -0.0151397 0.00255692 -0.0221438 
276 1 5.2455 11.3432 14.4532 0.014167 -0.0115901 0.00370434 
264 1 4.40631 11.4193 13.191 -0.01202 0.00998581 0.0221199 
270 1 7.14276 6.81711 14.3595 0.0202959 0.0235471 -0.0262386 
261 1 7.0872 7.27462 13.0288 0.0190667 -0.0235222 0.00447521 
348 1 10.5116 -10.4631 21.4925 -0.0120403 -0.00366155 -0.0353737 
360 2 10.855 -10.6042 22.5015 -0.0101388 0.00455721 -0.0288758 
345 1 9.13133 -7.97043 18.8651 -0.00520606 -0.000679547 0.00653016 
357 2 8.60218 -7.47394 19.654 -0.0924617 -0.0410232 0.0355151 
335 1 10.0784 -9.21023 19.6991 0.000695534 -0.0297631 0.00645193 
358 2 10.092 -8.21685 21.5001 0.0164021 -0.0760806 -0.093342 
346 1 10.1995 -9.22512 20.9613 -0.0248463 -0.0125287 -0.00566916 
336 1 10.7796 -11.4901 20.5832 -0.017579 0.0203609 -0.00180436 
329 1 10.1334 -10.369 18.8225 0.0104773 -0.0179006 0.000106197 
269 1 7.45945 6.09302 12.1349 0.00405929 -0.012056 0.0136435 
255 1 6.47883 8.44154 12.2785 -0.00803509 0.00217885 -0.00381596 
66 2 8.89226 -5.95266 35.6935 0.0202262 -0.0310455 0.0250435 
140 2 -6.3606 13.3326 -10.8751 -0.0582625 -0.0422617 -0.0485947 
139 2 -4.8503 15.3317 -10.0454 -0.0263657 -0.0759963 -0.0205715 
136 2 -2.39488 14.1907 -9.59763 0.012694 0.029891 -0.0150424 
127 1 -4.11823 14.6595 -10.6954 -0.00787859 -0.0116708 0.0010579 
124 1 -2.77298 14.1288 -10.5557 -0.00582399 -0.00279892 0.0143277 
567 2 11.4916 30.4271 1.03499 0.0133058 -0.00252422 0.00320264 
568 2 11.3684 29.912 3.73315 0.0783813 -0.0537873 -0.0716895 
272 1 4.25653 12.8233 11.2848 -0.00596485 0.0119767 0.00964397 
284 2 4.10437 13.8969 10.9723 -0.0279964 -0.0580238 0.0326576 
135 2 -0.266159 16.1195 -11.0869 0.0040392 0.0304568 -0.0754263 
123 1 -0.74061 15.4633 -11.8518 -0.00729631 -0.020143 0.0164162 
128 1 -6.18786 13.7311 -11.909 -0.00834178 -0.038033 0.0222502 
118 1 -4.86756 14.5039 -11.8431 -0.00791318 -0.0165422 -0.0201228 
116 1 -1.75897 14.4578 -11.6302 -0.00547019 0.00316286 0.00382071 
334 1 11.1249 34.0123 18.847 -0.0105865 -0.0286632 0.0415291 
287 2 3.77137 13.2962 13.4978 0.0579791 0.0510363 -0.0320337 
347 1 10.4402 35.1461 21.1949 0.0126452 0.00923951 -0.00337868 
359 2 10.3065 35.5124 22.3594 -0.0531471 -0.0605001 -0.034084 
344 1 10.9695 34.1759 20.4495 -0.00390803 0.00370622 0.0145627 
356 2 10.9194 33.0346 20.5766 0.00404443 0.050883 0.0175928 
141 2 -5.69984 15.1917 29.6148 0.0717991 -0.10118 0.0717168 
138 2 -2.92457 16.2685 29.4376 0.053374 0.000666142 0.0700881 
126 1 -3.51623 16.0595 30.3186 -0.0172549 -0.00539724 0.0209938 
129 1 -4.70675 15.3786 30.2449 0.0216754 -0.00797078 0.0317445 
142 2 -7.26357 15.011 30.8548 0.0448903 0.0176846 -0.0932406 
144 2 -8.20283 14.483 33.1443 0.0150613 -0.0221099 -0.0469718 
143 2 -8.31134 13.7708 34.9932 0.027012 -0.0619581 0.0360441 
132 1 -7.09582 14.6857 32.9444 -0.0245066 -0.0215943 0.0154823 
131 1 -7.18981 13.8983 35.0985 0.00425259 -0.00621041 0.0078778 
130 1 -6.74999 15.0528 31.7127 0.00527413 0.00347839 0.00934521 
328 1 10.8406 35.2947 18.3255 0.00999984 -0.021923 -0.00871311 
117 1 -2.5568 15.5274 31.3038 -0.0140873 -0.0105215 0.019797 
125 1 -1.19394 16.0312 31.1043 -0.00800564 0.00977739 0.00515607 
137 2 -0.567754 15.7898 30.1651 -0.0462535 0.0252209 -0.0345858 
119 1 -5.35369 14.9216 31.5004 0.000340203 0.00278103 0.0122068 
113 1 -4.32482 14.5674 32.681 0.000311806 -0.0048576 -0.0114698 
111 1 -2.8855 14.881 32.5698 -0.0138614 0.022291 -0.0211888 
109 1 -2.1543 15.0125 33.9228 -0.00704974 0.0110064 0.00578671 
110 1 -2.69547 14.4259 35.1483 0.00566514 0.0105395 0.00286572 
326 1 11.6615 35.6977 17.1955 0.0148891 -0.032966 0.00600459 
120 1 -6.31809 14.1532 34.0685 -0.0105254 0.00720594 0.00461074 
114 1 -4.97827 14.3005 34.0129 0.0192402 0.000870042 0.0260408 
112 1 -4.12552 14.358 35.011 -0.00299151 0.010486 -0.00517199 
275 1 3.74806 12.565 12.642 -0.00291053 -0.012619 -0.00726038 
115 1 -0.748569 15.2419 33.6202 0.00145503 -0.027116 0.0214554 
288 2 5.43015 12.3093 15.0764 0.0143641 0.0656362 0.0881709 
133 2 1.25143 14.6087 35.0107 0.038181 -0.0937887 0.0144281 
134 2 0.702723 15.7464 32.1412 0.0389483 -0.00553026 -0.0789572 
122 1 -0.409957 15.5048 32.0653 -0.0249197 -0.0135018 0.0236973 
121 1 0.113095 15.0182 34.8562 -0.0109408 0.00494308 -0.00836598 
343 1 11.7502 32.9425 18.2321 -0.0389158 -0.00834625 0.017951 
355 2 11.7886 32.1972 19.0101 -0.02872 0.0111626 0.0473608 
530 2 33.3059 -7.41728 -10.1132 -0.0118665 0.0283102 0.037906 
518 1 33.9564 -7.80316 -10.7612 0.0253246 0.0105418 -0.00646731 
521 1 35.2801 -8.21488 -10.5745 -0.0133778 -0.0150396 -0.00887319 
10 1 31.9274 8.5915 9.8052 0.0227065 0.00807732 0.0158327 
533 2 35.901 -7.9963 -9.6218 0.00619796 0.0349914 0.0211 
241 2 33.092 -11.549 -1.99462 -0.0418557 0.0387497 -0.0907408 
4 1 31.6285 7.45157 8.96139 -0.0227811 0.0258918 -0.0176768 
233 1 34.2977 -9.23136 -5.44219 0.0135683 -0.00438385 -0.031007 
245 2 34.2475 -8.07523 -5.4837 -0.018944 0.00151431 -0.0924327 
225 1 35.3316 -9.98834 -6.14173 -0.0250535 0.00490987 -0.0132371 
230 1 33.6528 -9.98201 -4.38955 0.00973876 0.00736504 -0.00676428 
242 2 33.1686 -9.34254 -3.6256 0.0247487 -0.0694788 0.00152983 
394 2 33.5947 0.162554 -6.38263 0.042547 -0.0405937 -0.0499922 
382 1 34.3582 0.793156 -5.94468 0.0160908 -0.0146062 -0.00986379 
384 1 33.4328 1.29868 -4.9894 0.0150795 -0.0195491 -0.0104418 
371 1 35.7618 0.445883 -5.43273 0.0436241 -0.0025875 -0.00681133 
396 2 32.369 1.49823 -5.19907 -0.130133 -0.0286581 0.00847061 
223 1 34.0065 -11.3536 -3.91057 -0.00959026 0.00585154 0.00763811 
395 2 32.2322 2.98676 -2.76974 -0.0123501 -0.026726 -0.0339487 
372 1 33.8906 2.11585 -3.50441 -0.0309464 -0.00247983 0.00442455 
366 1 35.4664 2.08961 -3.4412 0.00098278 -0.00166949 -0.00723718 
383 1 33.2785 2.8255 -2.56881 -0.0150406 -0.00436627 -0.0178321 
380 1 33.834 3.6496 -1.58507 0.00230437 0.00298587 -0.0328645 
27 2 34.5467 7.43445 5.53913 0.088153 -0.0888979 -0.0406803 
392 2 33.2028 4.61129 -1.77091 0.0766242 0.0680105 0.0123798 
370 1 35.3247 3.42435 -1.32066 0.00526598 6.15441e-05 0.0126393 
391 2 34.9834 4.29497 0.525054 -0.0586419 -0.0127861 -0.10864 
379 1 35.8609 3.69679 0.0567534 0.0165793 -0.0151349 -0.0104748 
30 2 29.2052 1.48736 8.1948 -0.0448846 0.0325631 0.0255025 
11 1 29.0803 4.49334 10.0504 0.0324561 0.0098847 -0.014817 
33 2 27.3202 3.76309 9.44418 0.0268112 0.0540647 -0.0122418 
21 1 28.4425 3.53231 9.32945 0.0100716 0.0244794 -0.0319365 
5 1 30.303 5.23344 9.56788 -0.0164495 -0.0209291 0.0305129 
18 1 29.2755 2.5825 8.3849 0.0138077 -0.00106157 -0.00452018 
217 1 34.9744 -11.8625 -4.84243 0.011725 0.0094448 -0.000816477 
9 1 30.4088 3.33882 7.73294 -0.0121595 -0.00269334 -0.0199454 
3 1 30.6941 4.66515 8.29017 0.00994786 -0.0032234 -0.0120279 
14 1 32.5898 3.26992 6.78897 0.0086765 0.00981062 -0.0299369 
13 1 33.7859 5.39097 6.39452 0.0169874 -0.0203212 -0.00988481 
26 2 33.6543 2.98962 6.63483 -0.0138334 -0.0723073 -0.122795 
29 2 31.1316 1.5823 6.81687 0.0759509 -0.0327592 0.0238321 
7 1 32.5759 4.69327 6.62989 0.0154046 0.0197164 0.0141637 
17 1 31.4113 2.56954 7.18772 -0.00908449 0.009859 -0.0116126 
1 1 31.9495 5.31241 7.7568 -0.0169357 -0.00943713 -0.00240116 
25 2 34.4976 4.69268 6.31363 0.0247108 -0.00240649 -0.000130919 
22 1 28.7374 5.12344 11.3809 0.0016478 -0.000314177 0.0393099 
246 2 35.2152 -8.83423 -7.70623 -0.0477521 0.0610738 0.0347046 
24 1 29.2472 6.23807 11.7859 0.0376597 -0.0196798 -0.00956562 
23 1 30.2919 8.56357 11.4399 0.013507 -0.0274785 -0.00903705 
12 1 30.0309 7.19746 10.8828 0.0126412 -0.0266721 0.00874303 
6 1 30.6413 6.4639 9.85099 -0.0011075 0.0012843 0.0221774 
219 1 35.7446 -11.1582 -5.79151 -0.00832784 0.000661166 0.0154803 
19 1 33.1189 9.18857 9.064 -0.0139727 -0.00196774 -0.00218888 
2 1 32.1374 6.81381 7.78431 -0.0202464 -0.0259623 -0.0121796 
32 2 31.6512 10.1908 11.063 -0.0375888 0.0206953 -0.0145159 
20 1 31.0434 9.42527 10.7264 0.0252775 -0.00334961 -0.0384865 
28 2 34.6309 8.90964 7.51845 -0.0548349 -0.00578208 0.0276602 
31 2 33.6239 9.87548 9.64097 -0.0177649 -0.028321 0.00144251 
16 1 33.6041 8.76852 7.71347 -0.000628175 0.01007 -0.0143033 
8 1 33.2365 7.43507 7.23165 0.00471246 0.0125772 0.0303754 
15 1 33.99 6.77951 6.16426 -0.0343392 0.0173785 -0.0120673 
364 1 35.973 2.44537 -2.18806 0.00108548 0.0185736 -0.00921447 
234 1 35.871 -9.48158 -7.32288 -0.00207487 -0.00262174 -0.00282467 
337 1 13.405 -11.2848 15.1714 0.00535251 0.0136449 -0.00332392 
511 1 33.7186 -7.32704 35.9667 -0.00201359 0.0148895 0.020988 
517 1 32.4428 -6.60833 35.5671 -0.0109523 -0.00967251 0.0173723 
508 1 35.7783 -5.97076 33.0256 -0.0019549 -0.0172502 -0.00533533 
36 2 29.0678 6.63059 12.9452 0.0980966 0.0678424 0.0281863 
505 1 34.9232 -6.96906 34.9456 -0.0171916 0.0232876 -0.00693852 
506 1 34.7963 -5.80576 34.1226 0.0187296 0.00119516 0.00723989 
523 1 34.2927 -4.52851 31.5313 0.0143514 0.0288531 -0.000799198 
535 2 33.7258 -3.81114 30.8443 -0.0169444 0.0128405 0.0517082 
520 1 33.4076 -4.24292 32.7781 0.00561496 0.00918312 -0.00514814 
532 2 32.6412 -3.48388 32.5311 0.0542172 0.0701515 0.0734564 
519 1 32.8005 -5.22178 35.2148 -0.00710293 -0.0342045 -0.0113176 
512 1 33.4394 -5.22018 33.9518 0.0279846 0.0118447 -0.0142632 
514 1 35.6222 -5.20306 31.668 -0.00261584 -0.0335567 -0.0262949 
349 2 14.3503 -11.742 14.3569 0.0361235 0.0274005 0.146815 
350 2 12.38 -9.04356 14.2861 -0.0020265 -0.0222942 0.0341417 
331 1 12.4931 -10.3847 15.587 0.00666818 -0.0205934 -0.00906397 
35 2 29.7831 8.68939 12.4086 -0.00597599 0.122429 0.0225417 
529 2 31.5301 -7.07658 35.2406 0.07383 0.0261069 0.0155901 
34 2 28.257 4.42409 12.0884 0.0295132 -0.00116287 -0.0299602 
531 2 32.5688 -4.46806 35.8597 0.000877298 0.0788747 -0.0165108 
555 1 12.3366 29.9518 0.743405 0.017745 0.0310889 0.0103229 
554 1 14.7881 29.4794 -2.14272 -0.00340845 0.00388162 -0.0143537 
553 1 13.0366 29.3956 -0.237082 -0.00793101 -0.0109653 -0.00596938 
557 1 16.1797 30.0868 -2.12981 -0.0208325 0.0347587 -0.00750376 
569 2 16.4004 30.8621 -2.92587 -0.022524 0.00134667 0.0105134 
566 2 14.0321 29.5975 -3.06557 -0.00744849 0.0597202 -0.121267 
547 1 14.5543 29.0817 -0.760465 -0.00228843 0.012744 0.0306689 
549 1 17.1308 29.4212 -1.07747 -0.0138789 0.0341908 -0.00339888 
558 1 18.5098 28.9929 -1.34971 -0.00113596 -0.0100724 0.0242938 
570 2 18.8045 28.9567 -2.32605 0.0216174 -0.0310916 0.00573274 
244 2 34.0944 32.5506 -3.08176 -0.0178835 -0.0465885 0.0314073 
232 1 35.2855 32.6956 -3.78477 -0.00526248 -0.00505189 -0.0163128 
243 2 33.4093 33.8694 -1.92545 -0.0246271 -0.0479418 -0.0496805 
231 1 33.8825 34.4984 -2.61729 0.0137021 0.0105822 0.0158986 
563 1 16.9065 30.1077 4.88338 0.0121948 0.00530732 0.0146051 
229 1 33.8619 35.9308 -2.68866 0.0376886 0.00938786 -0.00238054 
224 1 34.5726 33.9733 -3.85193 0.0114291 0.0119506 0.00948805 
247 2 35.7935 31.2084 -4.99107 0.0409239 0.0197226 -0.0461763 
218 1 35.2701 34.8199 -4.93703 -0.013067 0.0291474 -0.00109362 
576 2 19.5704 29.4059 4.3112 0.00888654 -0.0395093 -0.0761971 
560 1 15.6982 29.9597 5.46233 0.020953 -0.0225172 0.0166524 
550 1 14.8227 29.521 4.31879 -0.0166139 0.0131955 -0.00450202 
548 1 13.0703 29.6917 2.23178 0.00338656 0.00100015 0.00428655 
543 1 16.5721 29.0088 0.253926 -0.0091753 0.023578 -0.00540777 
545 1 17.2537 29.0773 1.32281 -0.00242083 -0.0201106 -0.0038667 
542 1 14.5186 29.5194 1.85781 -0.00393644 -0.00993991 0.0314413 
544 1 15.2757 29.3517 2.98593 0.0100529 0.0109613 -0.0094352 
546 1 16.5891 29.2421 2.61396 -0.0136049 0.00692401 -0.0114545 
541 1 15.1962 29.2364 0.441495 0.013452 0.0221136 -0.00820182 
552 1 17.4422 29.2542 3.74772 0.0142033 0.0229524 0.00530302 
556 1 12.6295 29.7812 3.39986 -0.0181994 -0.00381531 -0.00855366 
574 2 20.4909 29.3357 2.26543 -0.0400158 0.0049355 0.0551239 
562 1 19.3757 28.9775 2.2765 0.0136731 -0.0296777 0.00359913 
551 1 18.5281 29.1339 1.08679 0.0142045 0.026089 0.00120673 
573 2 20.4329 28.8148 -0.060811 0.00918139 -0.0394923 -0.0269988 
561 1 19.345 28.8808 -0.229701 -0.0105343 -0.0111703 -0.0418838 
564 1 18.9318 28.9562 3.63125 0.00406294 -0.0119021 0.00584133 
571 2 13.005 30.4369 5.39543 0.0340999 0.0249622 0.0257853 
559 1 13.4365 29.7984 4.62564 0.0157306 0.00537297 -0.00850298 
572 2 15.3451 30.4849 6.23252 -0.0318902 -0.0909309 -0.0309654 
575 2 17.7153 30.7172 5.0076 0.0252748 -0.0155779 -0.000294313 
565 2 12.7607 29.9956 -1.15164 0.0891623 0.141885 0.113702 
340 1 12.7122 33.304 17.1977 -0.0300109 -0.0094545 -0.0209007 
352 2 13.3023 32.5249 16.7093 -0.100794 0.0429563 -0.00473445 
351 2 14.2938 34.6218 15.8429 -0.0109952 -6.87947e-05 0.00762808 
332 1 12.6975 34.668 16.8028 0.00979471 0.00526669 0.0257633 
339 1 13.4435 35.3435 15.7345 -0.00483617 0.00445721 -0.00038688 
205 2 35.2502 17.713 32.5742 -0.000548715 -0.0390551 0.106739 
208 2 35.7173 13.7394 35.3325 -0.00794759 0.0468913 0.104333 
227 1 38.2666 -10.676 -6.57827 -6.1134e-05 -0.00267104 0.0060847 
250 2 40.558 -10.6805 -6.58341 -0.00307478 -0.0630483 0.0434077 
238 1 39.6238 -11.302 -6.68752 0.00288165 0.00283887 0.040111 
249 2 38.1417 -8.99066 -7.8744 0.0140371 -0.0638163 0.0396701 
237 1 37.2562 -9.52017 -7.3912 0.0104293 -0.00982086 -0.0264946 
221 1 37.2986 -11.429 -5.8063 0.0194134 0.0351795 -0.020243 
513 1 36.2198 -8.60786 -11.5803 0.0112244 -0.0185189 0.00909014 
504 2 49.6245 1.01347 4.56429 -0.169501 0.0164241 -0.013416 
489 1 46.1775 2.5594 6.49214 0.00696513 -0.0116542 -0.0196776 
522 1 37.6195 -9.17245 -11.4629 -0.0121754 0.0210789 -0.0117782 
393 2 36.2049 -1.10092 -6.93027 0.00905271 -0.022423 0.0296453 
501 2 46.6975 3.37705 6.76422 -0.0165754 -0.0263067 0.023457 
389 2 40.5839 -0.585707 -4.79724 0.0195769 -0.0513262 0.0356617 
377 1 39.9808 0.209772 -4.51582 -0.00812955 -0.00862118 -0.00628063 
386 2 41.4824 0.983105 -3.34616 0.01695 -0.0155386 -0.0945799 
381 1 36.6044 -0.568975 -5.921 0.00545301 0.012571 0.0108936 
378 1 37.7124 -0.657848 -4.88444 -0.0142916 0.0413959 0.00030765 
390 2 38.1911 -1.50174 -4.68854 0.0134872 -0.0425713 -0.00457311 
369 1 38.5599 0.534114 -4.74444 -0.00343987 0.0108036 -0.0256407 
374 1 40.4846 1.08499 -3.50564 0.0309725 -0.00135963 -0.00866983 
363 1 37.6539 1.55053 -4.02121 -0.00380334 -0.0063344 -0.0199197 
361 1 38.4728 1.9475 -2.74061 0.0194854 0.0072958 -0.0367351 
362 1 37.4092 2.31105 -1.99004 0.0110639 -0.000515827 -0.00890213 
367 1 39.6979 1.71144 -2.30912 -0.0145162 0.00515253 -0.0251701 
493 2 40.7014 0.404249 1.53343 0.0833377 0.00034341 0.0411002 
481 1 41.7656 -0.0301959 1.88774 0.00592985 0.018481 0.0113178 
495 2 41.7145 -1.99865 1.06198 -0.144613 0.0839704 -0.137816 
483 1 42.3089 -1.22976 1.37316 -0.0130464 0.022201 0.0162203 
476 1 43.9592 -1.34483 1.37014 0.0127241 0.00503862 -0.00411113 
470 1 44.497 -1.13834 2.53312 0.0396151 -0.00600236 0.0109427 
496 2 44.5071 -2.49967 -0.518268 -0.010486 -0.0447366 -0.0516455 
484 1 44.8435 -2.0407 0.488237 0.0349847 -0.00939036 0.0125945 
487 1 45.9321 -2.73352 0.92678 -0.00661918 -0.0150339 -0.0408517 
472 1 45.9473 -0.956409 2.49188 0.00806523 0.0158298 0.00628001 
478 1 46.6202 -2.1128 1.9927 -0.013026 -0.0119316 -0.0187111 
499 2 46.9319 -3.62497 0.549299 0.0247904 -0.0439793 -0.0513438 
480 1 47.9138 -0.658939 3.71825 0.0380303 -0.0142432 -0.0425897 
488 1 47.7091 -2.84723 2.69793 0.00419947 0.0272874 -0.00379097 
491 1 48.2708 -2.05542 3.68294 0.0187474 -0.0136981 -0.0141615 
500 2 48.2023 -3.90775 2.53826 -0.0179216 0.0932373 0.0693135 
503 2 49.0255 -2.59273 4.40752 -0.0242686 0.00415153 0.00484169 
388 2 37.31 2.46788 1.47777 0.0130511 -0.0643835 0.0447777 
376 1 37.0552 3.07109 0.575829 0.0197416 -0.0139655 -0.0107525 
385 2 41.3274 1.97401 -0.414192 -0.00593884 0.0290827 -0.0225126 
368 1 37.7851 2.62916 -0.666965 -0.00073079 0.00919375 -0.00819317 
494 2 41.3512 2.33097 3.4474 0.0625214 0.0232379 -0.0182159 
482 1 42.2259 1.65849 3.93615 -0.0271053 -0.00609085 0.00808875 
375 1 39.2298 2.63498 -0.153119 0.0100614 0.00372724 0.0045829 
497 2 43.5039 3.48532 4.80863 -0.0832782 0.0104614 -0.0689158 
373 1 40.1598 1.90982 -0.954478 0.0062179 0.00422475 -0.0274705 
387 2 39.1365 3.29953 0.921516 0.0465309 -0.0296467 0.0788965 
490 1 48.1007 1.57394 5.33447 0.00786808 0.00328881 0.00523626 
469 1 43.869 -0.168632 3.35709 -0.0297073 -0.0182952 0.0155682 
474 1 46.5698 -0.372052 3.63036 -0.00446604 -0.042203 0.00682264 
485 1 43.3344 2.4461 4.52404 0.0119576 -0.00503218 0.00339613 
475 1 42.424 0.346391 3.29808 -0.0170056 0.00346315 0.00415809 
477 1 43.9838 1.59645 5.4332 0.0121059 0.0112514 -0.00423673 
471 1 44.5206 0.453725 4.61281 -0.0188155 0.017855 -0.00394424 
473 1 45.763 0.495796 4.81935 -0.000855782 -0.00123647 3.75131e-05 
479 1 46.5097 1.64743 5.47303 0.0151818 0.0104352 0.0107856 
492 1 48.507 0.530331 4.64568 0.0012455 -0.0143269 0.00664326 
486 1 44.7945 2.20272 6.59251 0.0204478 0.0148083 -0.00150391 
498 2 44.0436 1.92086 7.45736 0.0273812 0.0685335 0.0228897 
502 2 48.848 2.28439 5.90783 -0.115556 -0.0447741 0.0219962 
365 1 36.3214 1.32079 -4.32079 -0.00238737 -0.0164671 -0.0182827 
314 2 50.2633 12.0541 -8.16236 0.00813825 0.111666 0.0498847 
79 1 49.8531 9.56586 29.8726 0.0115651 0.00836084 0.00933977 
85 1 48.6434 10.0731 30.2467 0.0347624 0.0125373 -0.00403477 
97 2 48.4926 11.2193 30.6384 -0.0111611 -0.0776432 -0.0492532 
539 2 38.6716 -5.34939 30.4302 0.00418808 0.0118474 -0.0415329 
91 1 46.7551 5.34833 29.4321 0.0224675 0.0412479 0.00458028 
103 2 46.0648 4.49423 29.1691 0.0588714 0.0155561 0.0387586 
82 1 47.7979 4.92108 28.5424 -0.00492097 -0.0279094 0.00726925 
76 1 48.8032 5.87342 28.8123 0.0165493 -0.0225781 -0.00801475 
92 1 48.1731 3.80307 27.5987 -0.0320522 0.00837793 0.0297302 
104 2 47.5436 3.30294 26.8372 0.00608562 0.0300511 0.0331821 
95 1 49.381 3.20834 27.3993 -0.012195 -0.0101436 -0.0195418 
107 2 49.4592 2.31744 26.6782 -0.0327155 0.00313837 0.0759535 
78 1 50.2496 5.19095 28.5694 0.00453756 0.00708602 0.0139602 
84 1 50.377 3.75552 28.4466 -0.0237938 0.0196665 -0.0291203 
108 2 52.1075 2.33546 28.35 0.0261536 -0.0374713 -0.0623361 
96 1 51.663 3.24218 28.6794 0.0158635 -0.0202652 -0.010699 
94 1 52.4431 4.15298 29.0722 0.0148008 0.00379245 0.0121517 
83 1 52.2821 5.56947 29.3296 -0.00378902 -0.00745719 0.0249606 
106 2 53.4223 4.21735 29.0837 0.0442732 -0.0158924 -0.0672863 
88 1 46.8184 6.63458 30.0513 0.00505617 0.0134968 0.00618844 
100 2 45.7943 7.10951 30.5589 -0.0331276 0.0125213 -0.0402588 
80 1 47.7116 7.72453 29.7282 0.00683936 -0.0242733 -0.0136898 
87 1 47.6143 9.1021 30.2965 0.0127807 0.0141998 0.00696083 
99 2 46.7436 9.60659 30.7558 -0.049328 0.0390057 0.0617658 
74 1 48.7994 7.27023 29.3061 0.0162034 0.01604 -0.0155882 
93 1 53.5201 6.45852 28.917 0.000535229 -0.00553817 0.0191004 
73 1 49.8539 8.2373 29.385 -0.00764931 0.0181897 0.0246352 
75 1 50.8861 7.46619 29.4655 -0.00112781 -0.0131381 -0.0281221 
77 1 51.0341 6.21798 28.8361 -0.0108599 0.0294124 0.00557202 
101 2 52.8748 10.3017 29.8619 -0.00913818 -0.00717203 0.0222994 
89 1 52.0775 9.77043 29.5565 0.00384779 -0.00121397 -0.0208264 
90 1 53.1211 7.81752 28.6233 -0.0152706 -0.0315626 0.00929469 
81 1 52.0859 8.29799 29.7513 0.00760366 6.37145e-05 -0.0114897 
102 2 52.2052 8.20003 27.9635 0.0664495 0.00509158 -0.0204583 
525 1 38.2009 -9.6412 35.279 0.022538 -0.00648816 -0.00200186 
509 1 37.0287 -7.78156 33.9777 -0.0216242 -0.0189084 0.00915945 
515 1 38.2573 -8.65131 34.2746 0.00997033 -0.0099933 0.00847336 
538 2 39.9711 -9.32956 32.7891 0.00662103 -0.0797837 0.0738891 
526 1 39.0273 -8.69218 32.9616 0.00708071 -0.0178487 0.0110673 
534 2 39.0366 -10.3675 35.6853 -0.0354959 -0.0576316 0.0365292 
528 1 38.6919 -7.78676 32.086 -0.0217806 -0.00946498 0.00129496 
510 1 36.9283 -6.86357 33.0186 -0.00936589 0.00238477 0.0126994 
507 1 36.0435 -7.97657 34.9784 -9.76776e-05 -0.0251844 -0.0167027 
98 2 50.3946 11.2762 29.659 0.0492824 0.0339687 -0.0638005 
527 1 37.8303 -5.96003 30.3973 -0.00134693 0.0105753 -0.0179843 
516 1 37.8203 -6.90067 31.633 -0.00246494 -0.0187044 0.0155192 
524 1 36.6393 -5.13068 30.4302 -0.000956587 0.014218 0.000961358 
211 2 37.6937 11.6188 35.1354 0.0420304 -0.0208858 0.0568153 
203 1 40.4252 10.9642 32.6649 -0.0014078 0.0210213 0.00234617 
200 1 39.1997 11.0385 33.2075 0.0132018 -0.00285803 0.00551973 
212 2 38.2872 10.2508 33.1849 0.040607 0.0935227 -0.0285694 
215 2 41.1056 10.1296 32.7596 -0.00796474 -0.0466645 -0.0672346 
86 1 51.0079 10.5061 29.735 -0.00947207 0.0117985 0.0145741 
536 2 36.7319 -4.05858 29.8795 0.0260327 0.0156156 -0.00672085 
71 2 54.496 9.20172 13.0187 0.0582738 -0.0499574 0.0703727 
216 2 43.1332 11.9936 31.9528 -0.0735009 0.0393789 -0.0134157 
289 1 51.3952 15.3357 -8.77491 -0.0405277 -0.0162602 -0.0097525 
305 1 51.3093 13.3492 -6.63026 0.0210246 -0.020795 -0.00132295 
290 1 50.9898 16.6211 -9.28112 -0.0295663 0.000336079 -0.00840613 
313 2 48.2098 14.2035 -8.15268 0.0208056 0.0343711 0.0583684 
301 1 48.9985 14.8292 -8.59096 0.00103772 -0.0165665 -0.00988131 
295 1 50.3624 14.3383 -8.4397 -0.0148374 -0.0251901 -0.00703008 
302 1 50.7 12.9919 -7.80573 0.00477991 -0.0165588 -0.00803821 
409 1 49.5664 23.9043 2.18117 0.00637078 -0.0209783 0.00147053 
303 1 48.8806 15.8058 -9.68018 -0.0108869 0.00428305 0.00654763 
291 1 52.0967 15.7909 -7.45508 -0.00805896 -0.0112306 -0.0110086 
292 1 52.0407 17.6929 -8.93527 -0.00878833 0.00205078 -0.0240263 
296 1 49.7646 17.0322 -9.84537 0.0102944 0.0256721 0.0202884 
315 2 47.8291 15.7246 -9.63311 0.0315642 -0.101736 0.110744 
293 1 53.2798 16.733 -6.88986 0.0107444 0.0192963 -0.0226218 
294 1 52.5856 17.8698 -7.58223 0.00056024 0.013095 0.000962088 
300 1 53.3166 19.0749 -7.24795 -0.00422079 0.00692597 0.0186295 
298 1 51.9056 18.9638 -9.59038 -0.0204494 0.00854231 -0.00293523 
307 1 51.0341 19.0418 -10.7367 -0.0173074 -0.0286396 0.000571013 
304 1 50.146 17.8963 -11.0131 0.00301719 -0.0128348 -0.0156069 
319 2 50.906 20.136 -11.2322 -0.0510126 0.000693717 0.017955 
423 2 49.442 25.6048 0.705962 0.0256782 0.0729229 0.0184713 
320 2 52.2891 21.2853 -9.33352 -0.0277854 -0.0123964 0.000504571 
308 1 52.5388 20.3762 -9.01764 -0.0292307 -0.0107107 0.00374748 
323 2 54.6858 20.0757 -8.86862 -0.0532241 0.0417781 -0.0285952 
311 1 53.7638 20.1121 -8.31312 -0.0067652 0.00283357 -0.00713812 
239 1 38.0179 33.2032 -7.62081 -0.0138203 -0.0153897 -0.0203846 
251 2 38.5328 32.6156 -8.35177 -0.0716161 0.0149978 0.10471 
240 1 39.4881 35.2906 -6.80497 -0.0118701 0.016086 -0.00294297 
228 1 38.1796 34.5521 -7.13714 -0.0119752 0.0150496 0.00645575 
252 2 40.4389 34.4985 -6.69149 0.0257869 0.0493056 -0.00466336 
222 1 37.3013 35.3029 -6.37754 0.00480901 -0.00993814 -0.00424429 
317 2 51.3776 12.5919 -5.93704 0.0589482 0.0730837 -0.0128311 
299 1 54.4864 16.5048 -6.33418 0.00627964 0.00530466 -0.016027 
321 2 55.267 14.6207 -5.03883 -0.0358807 0.030331 -0.0677612 
309 1 54.4065 15.1947 -5.67107 0.00692986 0.0378017 -0.0420629 
318 2 52.6859 13.9305 -4.64396 0.0352114 0.0218478 -0.0297967 
306 1 53.2753 14.4845 -5.62618 0.0189356 0.00820695 -0.0252015 
297 1 52.0132 14.7131 -6.47878 0.0093318 -0.0332838 0.0178143 
322 2 56.368 18.313 -6.42573 0.0391477 -0.0125963 -0.0510273 
310 1 55.3392 17.8065 -6.19733 0.00169789 0.0216919 -0.0144962 
324 2 55.2845 19.7497 -6.61771 -0.11987 0.0442059 0.0633707 
312 1 54.6354 18.8125 -6.63942 -0.0414768 0.0323468 -0.0215617 
236 1 37.1663 32.3353 -6.84838 0.00319625 -0.0121635 0.0120671 
248 2 36.7172 31.2497 -7.26678 -0.0122449 -0.0742593 0.0126835 
424 2 48.1077 26.9903 1.53625 -0.0238217 -0.0799203 -0.000397177 
226 1 36.9175 32.982 -5.48675 0.00104958 -0.010064 -0.00858926 
220 1 36.4136 34.3449 -5.54241 -0.0189285 0.0058161 0.0214671 
235 1 36.4287 32.0296 -4.52254 0.00241846 0.0143097 -0.000324645 
411 1 48.9697 25.1129 1.5617 -0.00206412 0.00118879 0.000849517 
429 2 44.3333 20.0243 6.20561 0.0195005 0.074937 -0.0345367 
417 1 44.6007 20.6011 5.35732 -0.0147763 -0.0146354 0.0178327 