ITEM: TIMESTEP
480000
ITEM: NUMBER OF ATOMS
576
ITEM: BOX BOUNDS pp pp pp
-1.2000000000000000e+01 8.4000000000000000e+01
-1.2000000000000000e+01 3.6000000000000000e+01
-1.2000000000000000e+01 3.6000000000000000e+01
ITEM: ATOMS id type x y z vx vy vz 
394 2 3.28101 -2.43819 -1.95913 -0.010106 -0.0208128 0.00894583 
391 2 0.189419 -11.6788 5.36609 -0.0546039 0.000902134 0.0982723 
370 1 2.16042 -11.6453 6.62854 0.0306094 -0.0300986 0.0288908 
465 2 -6.52902 6.66641 9.2995 0.0508749 0.0385132 0.0384374 
453 1 -6.65191 6.52868 10.3938 -0.0248145 -0.0381024 0.00264949 
388 2 -0.00904512 -9.32461 5.61069 0.0826249 -0.0323719 0.00483705 
366 1 4.48192 -11.1239 6.77548 -0.00767366 0.00965134 0.00329933 
379 1 0.93034 -11.1711 6.18908 0.0150089 -0.00272687 -0.0107737 
364 1 3.22545 -11.0478 7.45603 -0.00200034 -0.00627194 0.0107596 
365 1 5.67639 -10.6373 7.39741 -0.0184941 -0.0252499 0.015009 
363 1 5.15541 -9.64467 8.54408 -0.0217195 0.011412 -0.019234 
362 1 2.82619 -9.64759 7.90528 0.0245818 -0.0197329 -0.0020119 
361 1 4.04975 -9.07834 8.53363 0.0205896 0.00156103 0.0242881 
374 1 5.0159 -7.155 9.84296 -0.0144357 0.00954457 -0.0173933 
376 1 0.774439 -9.69741 6.4614 -0.0139226 -0.0144771 -0.012004 
368 1 1.62606 -9.10245 7.40496 0.0267812 0.0270587 0.0106442 
367 1 3.83133 -7.5724 9.08418 -0.00897038 0.00277984 -0.00191805 
387 2 1.55834 -7.27681 6.87612 -0.0122268 0.00393315 -0.0126328 
375 1 1.97137 -7.56588 7.71593 0.0295151 0.0166376 -0.0134211 
385 2 2.09062 -6.03452 9.43232 0.0608047 -0.034811 0.0075169 
373 1 2.64052 -7.01769 8.81532 -0.004813 -0.0112947 -0.00601054 
389 2 6.82777 -7.89214 10.895 0.0296812 -0.0900361 0.0528079 
371 1 6.94888 -11.2959 7.47679 0.0163123 -0.000460459 -0.0248894 
393 2 9.17157 -10.6788 8.49724 -0.0908032 -0.023731 -0.0051321 
381 1 7.89617 -10.6881 8.36489 -0.00513788 -0.00700499 -0.0115947 
369 1 6.45221 -9.16114 9.32246 0.00578658 -0.00362825 0.0188514 
377 1 6.09573 -8.03095 10.139 -0.00396566 -0.0267066 -0.0084045 
495 2 8.84594 -9.29627 9.73222 -0.1122 -0.0650452 -0.00782148 
378 1 7.783 -9.74729 9.3988 -0.0118621 0.00991541 0.0325755 
386 2 4.76518 -6.23131 10.3814 -0.0573345 0.00603831 -0.05649 
462 2 -5.26934 4.62223 10.948 -0.00538611 -0.00447351 0.0253509 
466 2 -6.40559 9.37202 8.53336 0.0407477 -0.0320444 0.0924341 
454 1 -6.5596 9.04133 9.63221 0.0130527 -0.0153791 -0.0130907 
443 1 -6.59561 7.85449 10.6263 -0.00688425 -0.0181412 -0.0346812 
456 1 -7.37472 10.2152 9.8044 0.00448235 -0.0168567 -0.00400005 
468 2 -8.16144 10.5496 9.1276 -0.0442969 0.0213858 -0.0738605 
450 1 -5.68091 5.77461 11.185 0.00911157 0.0075216 -0.00245656 
444 1 -7.55001 10.3358 11.187 0.0268962 0.00572517 -0.0121865 
396 2 7.28364 -11.6302 4.35267 0.00731519 0.0355609 -0.0449754 
455 1 -8.20369 11.5252 11.8167 0.022916 -0.00614512 0.0293029 
384 1 6.59466 -11.6178 5.32758 -0.0274936 0.000360173 -0.00816838 
437 1 -6.26633 8.3555 11.8884 0.0153675 0.000433922 0.0191117 
233 1 -1.76333 4.42245 17.7775 0.0227692 0.00464256 -0.0489256 
245 2 -2.57793 5.03834 17.1919 -0.0333711 -0.114982 0.00150588 
230 1 -0.436973 4.52184 17.059 0.00856255 0.00700307 0.0122702 
461 2 -3.72537 5.16268 12.8259 0.0046577 0.0956093 0.0179008 
449 1 -4.40168 5.88023 13.2557 0.000138102 0.00580062 -0.00731519 
458 2 -3.40115 5.47516 15.0126 -0.0777333 -0.0215069 -0.0562024 
246 2 -3.91191 3.83538 19.0704 -0.094946 0.0721267 0.0320929 
242 2 -0.421664 5.18044 16.2027 -0.0930926 0.00562683 -0.0407025 
241 2 2.37018 3.47501 16.7735 0.0170883 0.0629704 0.0138057 
229 1 2.02944 3.47 17.6717 -0.00338084 0.00252557 0.0206606 
438 1 -6.94412 9.49126 12.18 -0.0257266 -0.0219989 0.0051144 
436 1 -6.74276 9.8363 13.7684 -0.00149325 4.27904e-05 0.00154878 
251 2 1.98959 2.08381 24.8337 -0.0134313 0.0271694 0.0342995 
248 2 0.0708431 0.086625 24.5632 0.0143975 -0.0274929 0.0131339 
448 1 -6.49663 10.7119 16.5313 0.00333411 -0.00685306 -0.0227443 
442 1 -7.30708 11.1259 14.3273 0.0106018 -0.0322634 -0.000973803 
451 1 -6.97173 11.6442 15.5407 0.0026195 0.0136045 -0.018978 
239 1 0.210746 0.853354 23.9985 -0.024062 -0.0284199 0.00464884 
452 1 -8.33953 11.5653 13.332 0.0046128 0.00589312 0.0126001 
446 1 -3.94689 6.19727 14.5093 -0.0106223 -0.0059665 0.00210757 
435 1 -5.97899 7.4099 12.9355 -0.0131315 0.00156648 -0.0156605 
441 1 -5.63165 5.93885 12.6366 -0.00491474 0.00461324 0.000744434 
439 1 -4.42345 7.18372 14.9559 0.0219985 0.00126686 -0.0211358 
433 1 -5.44721 7.88821 14.1436 0.0103425 -0.0117021 -0.0237943 
434 1 -5.96321 9.0859 14.5384 -0.0165408 -4.28521e-05 -0.0146187 
445 1 -4.02497 7.79627 15.9554 -0.0404159 0.0130387 -0.00515483 
440 1 -5.93176 9.50032 15.8571 0.00325085 -0.00729337 0.00543139 
457 2 -2.92035 8.06923 16.1619 -0.0136545 -0.0178134 0.0404681 
447 1 -5.29244 8.34514 16.3568 -0.00540163 0.0156418 -0.0310679 
250 2 -3.60019 -0.540945 21.3943 -0.12217 -0.0500776 0.118771 
221 1 -1.31325 2.30762 20.6879 0.0147155 0.00533947 0.00469883 
225 1 -1.98385 3.45327 18.6973 -0.0154337 0.0324029 0.0148322 
234 1 -3.24462 3.19963 19.4931 0.00738998 -0.0123098 0.00946498 
237 1 -3.5825 1.80087 19.7178 0.00659414 0.00326663 0.00665338 
249 2 -4.45442 1.69511 19.5404 -0.0514518 0.0128263 0.0558766 
238 1 -2.66901 0.177552 21.551 0.00590389 -0.00251017 -0.0060148 
227 1 -2.47205 1.21674 20.7817 0.00430152 -0.0035114 -0.0232478 
240 1 -1.88849 0.437486 22.7669 -0.00445476 -0.00256353 -0.011884 
219 1 -0.868074 3.09178 19.5759 -0.00282786 0.0239118 0.0106972 
228 1 -0.762413 1.24208 22.8901 0.0149585 0.0189924 -0.00160234 
222 1 -0.4111 1.86706 21.6332 -0.010201 0.0134274 0.0206178 
223 1 0.672117 3.76555 17.8541 0.00224034 -0.010485 0.00237863 
243 2 3.4917 5.066 18.8882 -0.0902692 0.0759541 -0.00597605 
231 1 2.65973 4.36471 18.7743 -0.0318498 0.0276249 0.0205507 
232 1 3.2654 3.07832 21.1121 0.0220023 -0.0100942 -0.000669487 
235 1 2.96704 2.78368 22.4339 -0.0319927 0.00647095 -0.00537202 
244 2 4.3863 2.83897 21.1911 -0.032073 0.0672117 -0.0339486 
247 2 3.83488 2.20363 23.0102 0.141469 -0.0942488 -0.00676938 
224 1 2.59492 3.33382 19.8363 -0.0111893 -0.0127203 0.00139863 
218 1 1.20593 2.94662 20.3036 0.011862 0.00939308 -0.0143777 
217 1 0.473048 3.24624 19.1933 0.00307302 0.00681853 0.0159383 
220 1 0.723354 2.80417 21.5083 -0.0241713 -0.00600159 -0.00365754 
226 1 1.60105 2.58856 22.6022 0.0179867 -0.00471617 -0.0123679 
236 1 1.36552 1.88489 24.028 -0.0196685 0.0353934 -0.0296223 
460 2 -6.06288 11.14 17.3807 -0.0406273 0.0473333 -0.0425203 
459 2 -5.57256 8.5183 17.4846 0.0240837 -0.00398369 -0.0493433 
24 1 7.69613 -11.0342 27.4623 -0.0157176 -0.0179418 -0.0220245 
35 2 7.90185 -8.66542 27.0029 0.0674766 -0.0249647 0.0565645 
10 1 11.2976 -9.2651 27.4684 -0.00526627 -0.00767732 0.0132302 
20 1 9.85657 -8.54188 27.8611 0.0246235 0.00240228 -0.0167993 
4 1 11.4726 -10.8341 27.2077 -0.00384501 -0.00169775 -0.00316352 
32 2 9.81917 -7.40581 27.894 0.0432854 0.0730128 -0.0531324 
2 1 11.6762 -11.5825 28.2959 -0.0158432 -0.00921994 0.013498 
6 1 10.2465 -11.4067 26.776 -0.00267508 -0.0132624 0.00410874 
23 1 8.83433 -9.08065 27.2071 0.00345242 0.00118804 0.0114574 
12 1 9.0741 -10.5425 27.1227 -0.00202827 0.0158505 0.00520778 
36 2 6.85266 -10.5724 28.0657 0.0656814 0.0764724 0.094781 
252 2 -1.65625 -0.518195 23.3051 0.0463045 0.0124797 -0.00285173 
71 2 1.38141 21.7895 -7.83932 -0.0817191 -0.055483 0.0292196 
504 2 1.07974 22.4284 -8.27709 -0.0063929 0.0248879 -0.111556 
395 2 3.65813 34.344 4.90731 -0.00323638 0.095201 0.0502946 
383 1 3.90574 35.0946 5.73399 0.0038247 0.00598614 0.00316355 
392 2 1.9597 34.3641 6.60786 -0.14792 0.0946998 0.101704 
208 2 -4.74377 30.0101 11.6359 0.00830216 -0.0515905 -0.00353677 
380 1 2.70215 34.9941 6.49897 -0.000350442 -0.0129065 0.00601694 
211 2 -6.7681 31.8182 11.7908 0.023264 -0.102074 -0.00145897 
372 1 5.07554 35.9585 5.78075 -0.00507825 0.0327655 0.000192591 
390 2 8.348 35.5396 6.63241 -0.132342 -0.0492529 0.0594749 
382 1 7.23762 35.7596 6.35554 0.0130704 0.0244809 0.0218639 
467 2 -9.09221 12.268 11.7674 -0.0572006 0.059656 0.00589169 
17 1 9.79936 32.5771 29.4506 0.00128298 -0.00743654 -0.0238027 
463 2 -7.37462 12.5063 16.0735 -0.112892 -0.0280628 -0.020337 
207 2 -2.47263 30.0484 12.8001 0.0491224 0.0304049 -0.10065 
205 2 -1.07087 30.6538 14.3865 -0.000100124 0.00529384 0.0593991 
199 1 -6.24015 31.5783 12.6189 -0.0177094 -0.00907296 0.023086 
215 2 -10.0226 32.1925 15.9052 0.0857552 0.0232532 -0.0591088 
200 1 -8.08288 32.6448 14.6805 -0.00371919 0.00974254 0.0090058 
204 1 -9.03068 30.2621 17.4536 -0.016965 -0.023416 -0.00368794 
203 1 -8.9928 32.1203 15.6181 -0.0360419 -0.0161 0.00536555 
212 2 -8.80548 33.4194 14.1802 0.0368172 -0.00123443 0.0389699 
192 1 -8.2362 31.1594 16.5255 0.00160299 0.0208753 0.0193108 
190 1 -6.96257 31.7626 13.9445 -0.0124119 0.00100524 0.0108332 
186 1 -6.90589 31.1261 16.5776 -0.00627398 -0.00027568 -0.00894344 
194 1 -1.8521 30.8726 17.2347 0.0207782 -0.00838257 0.0344593 
197 1 -2.37028 30.5298 18.549 -0.0152575 -0.00433632 -0.0147359 
206 2 -0.784653 31.343 17.1953 0.00238895 0.00641822 -0.00372107 
193 1 -2.10022 30.4568 14.8846 -0.0193918 0.00888117 0.00578183 
187 1 -2.68603 30.916 16.0612 -0.00669784 0.00971526 0.00525697 
181 1 -4.07295 30.83 16.1543 0.00609844 0.0250688 0.000417798 
183 1 -4.7808 30.6776 17.2938 -0.0141254 -0.0112221 0.0191596 
185 1 -6.18736 30.3635 17.7597 -0.00022661 -0.0298845 -0.00420094 
184 1 -6.46016 31.1957 15.1949 -0.00210961 0.00399122 -0.0129587 
182 1 -5.01218 31.0154 14.9582 0.000831874 0.0227999 -0.00925293 
189 1 -3.83258 30.6092 18.5023 -0.0110283 -0.00257598 0.0029808 
188 1 -4.15834 30.7427 13.8113 0.0151046 0.0188648 -0.00479215 
195 1 -2.90373 30.3473 13.8204 0.018566 -0.0375874 -0.0236026 
196 1 -5.10919 30.5841 12.6528 0.00882578 0.00277029 0.0035006 
214 2 -6.462 29.4925 19.8541 -0.0503956 0.0203401 0.00238772 
202 1 -8.32636 30.2677 18.8092 0.0112066 -0.00249231 -0.000935282 
191 1 -6.90982 29.8487 18.924 -0.00672078 -0.011765 0.0142384 
209 2 -1.75714 29.9598 19.0637 -0.0708746 -0.0117482 0.0470223 
213 2 -3.9333 31.3901 21.6659 -0.018811 -0.013398 -0.00225767 
201 1 -4.30429 31.0433 20.7865 -0.00206351 0.0184034 -0.00801535 
198 1 -4.51993 30.601 19.7132 -0.00557998 0.00317193 0.0142584 
34 2 6.66109 35.4621 26.4395 -0.0364424 0.00397617 -0.0494116 
5 1 10.0196 35.0823 26.2451 0.00459344 0.00402984 0.0193297 
11 1 8.6761 34.902 26.8254 -0.0226029 0.0193681 -0.0179092 
21 1 9.02455 33.7235 25.7852 -0.00120924 -0.0136819 -0.00511886 
33 2 8.22946 34.0039 25.1563 -0.043334 -0.010933 0.0789675 
22 1 7.45284 35.4511 27.1922 0.00154244 0.0134343 -0.0237908 
18 1 9.26159 32.763 26.7805 -0.00652718 -0.0149775 -0.0299159 
9 1 9.89708 33.121 27.9708 0.0177848 -0.0083327 -0.00520588 
3 1 10.6011 34.3601 27.6197 0.0196943 0.00716296 0.00478286 
30 2 8.68678 31.7357 26.3858 -0.0830102 0.0947553 0.106849 
1 1 11.3019 35.0881 28.5669 -0.00219302 -0.010419 0.00200528 
26 2 9.45818 33.7966 31.2201 -0.00555483 -0.0197691 0.00878046 
7 1 11.3348 34.4924 29.7334 0.0153818 -0.0105395 0.0114881 
29 2 9.42465 31.5512 29.6141 -0.115441 -0.0130592 0.0255847 
14 1 10.2436 33.6214 30.421 -0.0108538 -0.0104157 -0.0250297 
135 2 21.4162 -2.14729 -9.87739 0.033931 0.0664831 0.119853 
141 2 25.9452 0.255721 7.95074 -0.0422289 -0.0328387 0.0228579 
471 1 31.9666 -8.23882 -11.1299 -0.00673043 0.0170399 -0.0127892 
469 1 32.0129 -6.77464 -11.3086 0.00353533 0.00372596 -0.000569847 
473 1 33.1514 -6.32184 -8.67733 -0.0100085 0.0176109 -0.0131664 
480 1 33.7602 -5.81305 -7.12932 0.0113336 -0.00166551 0.00245779 
474 1 32.5625 -7.44174 -8.93525 0.0145686 -0.0118882 -0.00406332 
479 1 32.0322 -8.44223 -9.71802 0.00501827 0.0188703 -0.0255083 
497 2 32.0619 -9.60193 -9.48276 -0.054139 0.0620637 -0.0500285 
501 2 33.0165 -10.6191 -11.8652 -0.113575 0.0611812 -0.065063 
470 1 31.7881 -5.49585 -10.7041 0.0122852 -0.0122013 0.000151453 
472 1 32.9233 -5.42783 -9.75674 0.0029252 0.0101627 -0.0105851 
478 1 32.6409 -3.88878 -9.21733 -0.0289091 0.0172415 0.00336521 
476 1 31.6339 -4.18327 -11.6746 0.0217055 -0.0225307 0.00958292 
503 2 33.1639 -3.49939 -8.18589 -0.0656751 0.115803 -0.0466032 
487 1 31.5398 -3.04518 -9.44289 -0.00240781 0.0126906 0.00533552 
484 1 31.2068 -2.96188 -10.8483 -0.00870363 0.000279896 0.00203393 
499 2 31.3509 -2.26256 -8.75119 0.0153796 -0.0218918 -0.0201317 
428 2 21.0225 6.2159 -11.9901 -0.018239 -0.0477244 -0.118275 
570 2 28.5766 5.90971 -10.5675 -0.0285159 0.112921 -0.01277 
547 1 31.5349 4.52087 -7.12381 0.0129538 0.020712 -0.0115385 
541 1 31.6462 5.90378 -7.48199 0.00193968 0.0328626 -0.000663357 
557 1 30.8262 4.08801 -9.52092 0.0226332 0.030927 0.0201494 
566 2 31.2543 3.9329 -10.5034 -0.0574673 -0.00943265 -0.0166733 
549 1 30.9067 5.59159 -9.98616 0.00575983 -0.00117649 -0.0112857 
554 1 30.9814 3.86926 -8.2768 0.0167365 -0.0144843 0.00148955 
569 2 31.6808 4.03125 -6.02735 -0.0092293 0.0645385 -0.0536632 
137 2 29.5685 2.63082 8.48306 0.0945885 0.0186234 0.0113313 
543 1 31.0086 6.44199 -8.86208 -0.00961001 -0.00727475 -0.016314 
546 1 31.2826 8.38383 -7.49623 0.00799797 0.0142745 0.0306166 
545 1 30.8425 7.8758 -8.66118 -0.003758 -0.00566792 -0.0146425 
551 1 29.9257 8.44741 -9.73079 -0.0329284 0.00790077 -0.0103349 
558 1 29.6459 5.97833 -10.7269 0.00639228 -0.00228204 -0.0195699 
552 1 30.4547 9.4871 -7.21579 0.00448894 -0.00446152 -0.0146435 
564 1 29.3835 10.0487 -8.0611 0.0171244 0.00599015 -0.00907377 
576 2 28.5937 10.9147 -7.68825 0.013737 0.0156903 -0.00316315 
562 1 29.2868 9.7361 -9.37951 -0.00154136 -0.00973525 0.0387468 
574 2 28.6771 10.2247 -10.1806 0.00387576 -0.00959851 0.0784415 
573 2 28.9489 8.27821 -11.3027 0.00883589 -0.041847 -0.065954 
561 1 29.806 7.55763 -10.8347 -0.00966589 -0.0157249 0.00355646 
490 1 34.2032 -5.52597 -6.06681 0.0108945 0.0194748 0.00832534 
502 2 34.3046 -5.84704 -4.0223 0.0191221 -0.0644088 -0.0539719 
492 1 34.6287 -5.24172 -4.78643 -0.000570474 -0.00677392 -0.000563476 
105 2 31.1191 -10.9907 -5.02311 0.0619553 0.027259 -0.0252626 
134 2 30.7979 4.59765 7.28036 0.00360492 -0.135738 -0.0914917 
553 1 34.6432 5.23719 -5.0282 0.0147193 -0.0224155 -0.020723 
555 1 33.4763 5.51466 -5.2524 -0.00186909 0.00325833 0.0224628 
568 2 30.9705 5.99499 -3.18514 -0.00261546 -0.00278493 -0.0267826 
560 1 31.4706 9.83233 -5.14052 0.0111607 -0.00350691 -0.0148964 
572 2 31.7905 10.7024 -4.15612 0.0729793 0.0206373 0.0202186 
542 1 32.3159 6.80401 -6.53302 0.031721 -0.022646 -0.0244808 
548 1 32.0923 5.94299 -5.30487 -0.0156494 -0.0172589 -0.010288 
567 2 35.3318 5.88706 -4.44557 0.01707 0.0187316 0.0520124 
575 2 29.374 10.7277 -6.04954 -0.0378659 0.085366 0.00774001 
544 1 32.1539 8.08457 -6.23803 0.00612205 0.0275028 0.0154349 
563 1 30.4409 10.1467 -5.85275 0.00983284 -0.00481022 -0.0247953 
550 1 32.3715 8.6911 -4.84557 -0.0164564 0.0154266 0.0140523 
559 1 32.0487 7.82785 -3.62713 0.0276465 0.00700556 -0.0165359 
571 2 32.6668 8.15037 -2.87452 0.0652477 0.0905764 0.019306 
556 1 31.5876 6.41875 -4.01077 -0.00446453 -0.00991827 0.0017551 
282 2 22.3675 -1.96685 -9.995 0.0251829 0.0484375 -0.0579495 
140 2 20.9583 4.9671 2.928 0.00701115 0.0521964 -0.00540642 
128 1 21.841 4.57068 3.64137 -0.0362041 -4.60961e-05 0.00694171 
143 2 22.9337 5.22926 5.32278 0.0217395 -0.0260829 0.0274347 
131 1 22.715 4.46152 4.60987 -0.0247673 -0.0251738 -0.00171308 
144 2 22.1642 2.19778 5.84594 0.0237364 -0.00568909 -0.0355278 
132 1 23.2207 2.36771 5.83498 -0.00499806 -0.021486 0.000886514 
120 1 23.5962 3.56116 5.42637 -0.0135699 0.0201694 0.0260076 
112 1 25.4363 5.24246 4.59205 -0.0151334 -0.0070308 0.0286072 
118 1 24.8617 5.58398 3.1134 0.00593476 0.00404077 0.00790007 
114 1 24.8446 4.15534 5.50441 -0.0322289 0.0103309 0.0201916 
113 1 26.037 3.24118 5.80406 -0.000500701 -0.0213856 -0.000555277 
130 1 24.1598 1.54035 6.39426 0.000442394 0.0093493 -0.000609388 
111 1 27.1657 3.68336 6.4942 0.0136837 0.0191151 -0.00325159 
109 1 27.4846 5.15189 6.15357 0.00426607 -0.00248016 0.0138894 
110 1 26.707 5.72875 5.04963 0.0100937 0.0030177 0.0372391 
177 2 26.2638 4.80298 1.4416 -0.00939637 0.0337131 0.0251523 
139 2 24.4482 6.5398 2.82319 0.0376174 0.0140578 -0.0804166 
115 1 28.8663 5.55042 6.54174 -0.00636494 -0.0129196 0.00863422 
127 1 26.0581 5.31809 2.36775 0.0499487 -0.00872437 0.0160536 
136 2 27.5595 6.9084 1.60809 -0.00705235 0.0842095 -0.0152324 
124 1 27.2022 6.48776 2.55605 -0.00915996 0.00181213 -0.00591787 
123 1 29.0863 6.89003 4.37452 -0.00757538 -0.020549 0.00138913 
133 2 29.7762 6.96361 3.70592 0.115122 -0.00480003 0.0821812 
116 1 27.6297 6.71948 3.91113 0.00108843 0.0243725 0.0151539 
121 1 29.2791 6.25837 5.42346 0.0191995 0.00801819 -0.0117609 
129 1 26.2255 1.08463 7.31572 0.00415066 -0.0243163 0.0293415 
142 2 23.7611 0.900862 7.29317 -0.0733894 -0.0584695 0.0461828 
119 1 25.5548 1.92345 6.14684 0.0138718 -0.0138365 -0.00242298 
117 1 27.7152 3.01206 7.4904 0.012182 -0.00371067 0.0200341 
122 1 29.7362 4.42898 7.17354 -0.0102189 0.00725247 -0.00493899 
138 2 27.713 0.986512 8.92997 -0.0235291 -0.0379339 0.0281901 
126 1 27.2488 1.63701 8.14329 -0.0177388 -0.00249435 0.0224099 
125 1 29.0284 3.43779 7.87822 0.00229125 -0.0176158 0.00546596 
565 2 34.9642 4.33026 -5.56132 -0.0267366 -0.073836 0.0107434 
489 1 35.8028 -4.83127 -4.73825 0.00299 0.0134655 -0.000811234 
421 2 30.7165 3.43964 21.3676 0.0282627 0.121447 -0.0264375 
402 1 19.4489 6.66314 32.6858 0.015917 -0.00644794 0.0297075 
423 2 20.2802 12.1285 30.2966 -0.0621516 0.0611123 0.0489049 
488 1 32.1618 -10.2148 35.4934 -0.00116432 0.0194413 -0.00716472 
427 2 23.1184 7.57663 34.581 -0.0630597 -0.0190436 0.0196155 
498 2 32.713 -11.8945 34.6714 -0.105536 -0.15207 -0.035341 
100 2 17.4355 10.7836 20.8108 0.00232967 -0.0592582 -0.0380548 
88 1 17.5803 11.6958 21.4432 0.0042413 0.000932367 -0.00452874 
19 1 12.3369 -8.41468 27.2878 -0.0119597 -0.0168122 -0.00588356 
27 2 13.3866 -10.2863 29.3779 -0.0336497 0.0305373 -0.00846154 
28 2 13.4307 -6.53156 27.4289 0.0687206 0.00739879 -0.0311412 
8 1 12.5349 -10.853 29.2631 -0.013976 -0.00422876 0.0308034 
31 2 13.7341 -7.38486 26.054 -0.0189993 -0.0232582 -0.00459677 
16 1 13.4036 -7.56957 27.168 0.0163998 0.0336874 -0.0121598 
417 1 19.8987 4.34108 29.3806 -0.0342935 -0.0200775 -0.0286224 
429 2 20.1891 3.99939 31.58 -0.0219589 0.062018 0.0517266 
410 1 19.7671 9.22586 28.739 0.00367427 -0.0310311 -0.01708 
426 2 18.2295 5.29764 28.2184 0.0876296 0.0231749 -0.0491463 
425 2 18.2063 7.78635 27.6444 -0.0746677 0.000107029 -0.0939465 
414 1 19.3261 5.54779 28.6587 -0.0142216 -0.00138381 -0.00755596 
405 1 19.6468 6.95185 28.9765 -0.00536136 -0.0114236 0.00826947 
413 1 18.9225 8.07892 28.5357 0.00260008 0.0179665 0.00575266 
422 2 20.825 9.42304 28.1868 0.0623292 0.0151832 -0.0262068 
15 1 12.3706 -11.7733 30.3333 0.0263091 -0.00215804 -0.00665351 
400 1 20.2139 7.66938 33.2352 -0.00965143 0.0053818 0.00365239 
431 2 19.2199 4.55208 34.9981 -0.0610619 0.0251729 -0.0363421 
500 2 31.4336 -10.9779 33.4935 0.0243692 -0.0477688 0.0700412 
485 1 31.6546 -8.45056 34.1011 -0.00527283 0.000880603 -0.00181697 
475 1 32.484 -6.29391 35.3579 -0.00979249 -0.0123859 -0.00198481 
108 2 31.32 -6.26305 34.0081 -0.0144563 -0.140825 0.0291616 
482 1 32.0026 -7.05249 34.1123 0.00637382 0.00603349 0.00288523 
494 2 31.7627 -9.14528 33.1797 -0.0111729 0.0748459 -0.0673108 
491 1 32.1575 -11.1009 34.2777 0.0124759 -0.00160787 0.00475004 
493 2 33.5319 -2.83712 34.0128 0.00910418 0.0683998 -0.100071 
481 1 32.8434 -3.75514 34.044 0.0121092 0.016231 0.00279069 
496 2 32.9792 -4.54414 33.2903 0.0363839 0.101578 -0.0819403 
483 1 32.1901 -4.02724 35.0689 0.00413604 0.000937471 0.0075904 
477 1 32.056 -8.76741 35.4163 0.0269861 0.00894562 -0.0201157 
419 1 19.4704 5.44317 34.6338 -0.00694868 -0.00885348 -0.0358224 
407 1 20.0816 4.80737 30.8065 -0.0280348 0.00166413 0.0214169 
401 1 20.0536 6.1884 31.4382 -0.0176186 0.00824767 0.00532836 
430 2 15.5437 7.42168 32.5243 -0.0408478 -0.0456887 0.0501046 
418 1 15.7077 6.53127 32.9773 -0.0359573 -0.00147142 -0.027055 
432 2 14.9171 5.80909 33.0275 -0.00900649 -0.123349 0.0603512 
415 1 22.456 8.04181 34.0345 -0.0167777 0.0147182 -0.0107029 
420 1 16.9726 6.21756 33.4687 4.44752e-05 -0.00445895 0.00377393 
408 1 18.438 5.9574 33.6012 -0.00825378 -0.0224254 -0.000236708 
416 1 20.3932 6.28468 35.1459 -0.0158917 -0.000889972 0.0101872 
412 1 22.1608 9.56626 33.9596 -0.00132315 0.0178626 -0.00921081 
424 2 23.1932 9.86527 34.1665 0.0817835 0.00801459 -0.0379773 
398 1 20.537 8.71393 32.2431 -0.00270832 -0.0113132 0.0261871 
397 1 19.9081 8.55616 30.8113 -0.0116749 -0.000103199 0.00433149 
399 1 19.7911 7.23638 30.4135 0.0246102 0.00826888 0.0205266 
403 1 19.8308 9.81337 30.1531 0.00478698 -0.00336349 -0.0204525 
404 1 21.5188 9.64399 32.6223 0.008907 0.00418143 -0.00861988 
409 1 20.4098 11.1135 30.9157 0.00581392 -0.0233527 -0.00040603 
411 1 21.801 10.7338 31.593 -0.00244277 -0.00241149 -0.0160115 
406 1 21.1802 7.204 34.2367 -0.000527944 0.0467793 -0.0177895 
91 1 17.6603 11.982 22.8503 -0.00880205 0.00212318 0.0272878 
537 2 26.4406 19.3287 -3.78903 -0.0383116 -0.0377709 0.021466 
540 2 26.9431 20.0034 -3.85676 0.0753207 0.068928 0.0448371 
101 2 12.8224 15.5274 18.3199 -0.159878 0.0139682 -0.0972861 
89 1 13.6477 15.3538 19.3316 0.00938399 0.00816727 -0.00506737 
102 2 12.1076 17.1704 21.2433 0.0254419 -0.0608941 -0.0469462 
90 1 13.0826 16.6749 21.3271 0.00285809 0.0300764 0.0136428 
93 1 13.7698 17.3414 21.9915 -0.0226944 0.00451938 0.0192732 
81 1 13.8354 15.3031 20.7853 -0.00790507 -0.00813516 -0.00393748 
94 1 15.564 17.9922 24.022 0.0312009 0.00794427 0.00356891 
83 1 15.1515 17.2662 22.6903 -0.0211077 0.000763373 0.0176521 
75 1 15.1144 15.0822 21.1689 -0.0188542 0.000823413 0.0135289 
77 1 15.5599 16.0783 22.3045 -0.0300408 -0.0225854 0.000143633 
78 1 16.4811 15.3526 22.8126 -0.0151339 0.00864129 -0.0220873 
74 1 17.2435 14.118 20.9182 -0.00188614 0.0392312 0.0109434 
73 1 16.2892 14.7819 20.2774 -0.00252306 0.0132535 0.0232733 
86 1 14.6727 14.9527 18.5706 0.00580427 0.0163467 -0.0186361 
98 2 14.518 15.2739 17.5552 -0.0306698 -0.125849 -0.00165965 
79 1 16.0775 14.6029 19.1578 0.00329919 0.0147 -0.00203458 
176 2 34.9829 28.9529 35.5432 0.0372614 0.0595911 0.027802 
76 1 17.7485 14.7064 22.239 -0.0113404 -0.0144601 -0.0176886 
355 2 18.58 15.3729 22.3261 0.000121377 -0.0395764 0.0109481 
82 1 17.9513 13.3706 23.2256 0.00487232 -0.0223193 -0.0349462 
80 1 17.7069 12.8545 20.4554 -0.0297542 0.0249643 0.0170243 
106 2 14.7993 18.5722 24.6606 -0.0438145 -0.0125668 0.0359143 
84 1 17.2259 15.9299 23.922 -0.0034047 0.00885265 0.0069566 
96 1 16.7674 17.4301 24.5342 0.000985144 -0.00577405 0.0100641 
95 1 18.1961 15.4968 24.7106 0.00239338 0.00612444 -0.0238317 
107 2 18.8781 15.6206 25.5696 0.0324392 -0.0169101 -0.00220717 
92 1 17.9704 14.0772 24.6107 -0.00831884 0.0299144 0.00880189 
104 2 18.1724 13.4672 25.6525 -0.0710432 0.135456 0.0165713 
85 1 16.5653 13.3308 18.5751 0.0250057 0.0345987 0.00113736 
87 1 17.8821 12.9105 18.9997 -0.0121048 -0.00747328 -0.0089788 
13 1 12.0519 35.0227 30.787 0.0198938 -0.0139976 -0.0103962 
97 2 15.9431 12.8965 17.8068 -0.0157209 0.0748186 0.0212414 
25 2 12.5596 35.3738 31.7152 0.00384721 0.0129593 0.070636 
99 2 18.6491 12.5502 18.3278 -0.0385017 0.0966368 -0.0147636 
103 2 16.6248 12.165 23.2656 0.0464805 -0.0360685 -0.0218976 
352 2 56.7031 -6.05782 -10.0285 -0.0299937 -0.0181173 0.0161331 
340 1 57.2378 -5.57676 -10.844 0.0174407 -0.000479124 -0.0016715 
343 1 57.865 -4.34091 -10.844 -0.0227672 0.00665154 -0.00276143 
357 2 58.1668 -3.8251 -10.025 -0.0450428 0.0379383 -0.00140997 
464 2 36.8512 11.4579 -3.99569 0.0264258 0.0303442 -0.0310698 
351 2 55.3273 -6.85423 -11.2315 0.0161485 -0.0160933 0.0154908 
67 2 48.0233 4.82647 -7.73056 -0.0469855 -0.0481962 0.0570726 
68 2 49.1095 3.88135 -9.47935 0.0476498 -0.0734007 -0.0239469 
60 1 52.888 6.28296 -11.4914 -0.0168879 0.0392932 0.00804486 
48 1 51.6008 6.37084 -10.4087 -0.0168368 -0.000666387 -0.00403698 
66 2 54.6916 9.85564 -11.3019 0.0394332 -0.0474378 -0.0971953 
59 1 49.6701 5.06172 -9.70698 0.00527488 0.00172385 0.000529416 
56 1 50.8651 5.13485 -10.3113 -0.00358837 0.00174193 -0.031314 
72 2 51.4258 4.21059 -10.8953 -0.028417 -0.00296632 0.0386772 
64 2 47.8201 6.9597 -6.20364 -0.0358168 0.00452995 0.0172086 
52 1 48.4355 7.11084 -7.00725 0.0143379 0.0114124 -0.0051468 
57 1 53.7396 10.1063 -10.7275 0.0209482 -0.00566796 -0.000277505 
55 1 48.752 5.97669 -7.82076 0.0316965 -0.0165499 0.00931785 
44 1 48.7884 8.5122 -7.37431 0.00910246 0.00339292 0.017405 
58 1 53.4551 7.71947 -11.2403 0.00768941 -0.00909266 -0.0065957 
51 1 48.1351 9.76146 -7.04802 0.0178829 -0.00689598 0.00080553 
49 1 48.871 11.0416 -7.21977 -0.0176505 0.00857297 0.0220828 
47 1 53.0945 8.6931 -10.3715 -0.0268892 0.0136446 0.0216721 
54 1 53.1784 11.2116 -10.2278 0.0201308 0.010249 0.0159295 
45 1 51.8891 10.9892 -9.50358 0.00994601 -0.0160691 0.000558671 
41 1 52.2505 8.50935 -9.03868 0.000670591 0.00942742 0.0214571 
46 1 49.4915 6.26646 -8.97359 0.0204811 0.0081027 0.00278822 
39 1 51.9055 9.78255 -8.50955 0.0039062 0.0264806 -0.0181376 
37 1 50.9787 9.56219 -7.38971 0.01896 -0.00716666 -0.0246602 
42 1 51.4837 7.06079 -9.26171 -0.0156987 0.0185098 -0.00864592 
38 1 50.1465 8.53574 -7.99355 0.00548677 0.0314737 0.00485461 
40 1 50.4885 7.32854 -8.41388 -0.00813902 -0.0125565 -0.0278798 
43 1 50.3009 10.8485 -7.39512 -0.0417167 -0.043108 -0.000383432 
61 2 48.7022 12.0335 -6.59879 0.111538 0.0615215 0.0197684 
210 2 37.8583 2.51504 6.80851 0.00103128 0.00771755 0.0476363 
63 2 47.3838 9.41701 -6.10669 -0.0464763 0.0216723 -0.0229053 
486 1 37.0325 -4.51639 -4.36569 -0.0197284 0.00274306 -0.00325699 
356 2 59.9187 -2.49509 -11.0093 -0.0385162 0.0526912 0.0856932 
344 1 59.7076 -3.04455 -11.9098 -0.0135394 -0.0270352 0.0100606 
349 2 54.3688 -6.81854 33.763 -0.00153317 -0.00798354 -0.0916935 
338 1 56.2939 -9.13819 33.1201 0.00858376 0.00734162 0.0324836 
350 2 55.5154 -9.92707 33.2686 -0.0107577 -0.0777998 -0.0667042 
353 2 56.6579 -9.77484 31.2184 -0.123397 -0.00785081 0.0037272 
331 1 56.3394 -7.73751 33.6659 0.0180701 -0.0207486 -0.0429268 
341 1 57.0129 -8.83075 31.6928 -0.0392142 -0.0120268 0.0029553 
333 1 58.2803 -8.24486 31.945 0.0100809 -0.0171235 0.00288564 
337 1 55.169 -7.1347 34.384 0.00366393 -0.0138743 0.0129334 
327 1 58.5954 -7.00295 32.6871 -0.012264 -0.000848848 -0.00360046 
339 1 55.457 -6.53185 35.7242 -0.00945202 -0.00165284 -0.00935819 
329 1 59.6024 -5.92184 32.8334 0.000563565 -0.0159923 -0.00692414 
330 1 59.9001 -5.1621 33.7606 -0.0132634 -0.0154962 -0.00779135 
328 1 58.8719 -4.932 34.7027 0.000937393 0.0128274 0.00413948 
325 1 57.565 -6.79884 33.7775 0.0168694 -0.0310321 0.00473434 
326 1 57.8507 -6.15882 34.7897 -0.0120307 -0.00140665 0.0021951 
342 1 59.8141 -8.61363 31.8812 -0.00442573 -0.00996124 -0.0323294 
332 1 56.7132 -5.86965 35.7733 0.00612884 0.000709878 0.00303648 
334 1 58.608 -4.10532 35.8742 -0.0137767 0.0112515 -0.0179797 
354 2 60.1008 -9.07285 30.8358 0.0553889 -0.0632351 0.0714555 
70 2 52.5431 5.80238 35.4068 0.0762603 0.0611182 -0.0930706 
62 2 49.6888 13.2232 -7.4037 -0.0396134 0.0583965 -0.00827833 
283 2 57.5249 32.1897 6.12073 -0.00552256 0.0898743 -0.0511815 
50 1 50.3106 12.4072 -7.97809 -0.00698542 -0.000358662 -0.00286736 
539 2 42.4797 32.8269 3.27902 0.0247157 0.051753 0.0168866 
179 2 42.9798 33.0135 2.75543 0.0774877 0.105765 0.0484846 
269 1 53.0569 30.555 -0.177297 0.0158224 -0.00520656 0.00273805 
281 2 53.2865 29.4564 -0.851253 0.0365328 0.103317 -0.0664762 
285 2 56.4087 33.154 -2.2988 -0.0487808 -5.25421e-05 -0.0839052 
261 1 54.4054 31.2648 -0.667522 -0.00236173 -0.00573477 0.0345163 
270 1 54.9302 31.6986 -1.86557 0.0252589 0.0272209 -0.01285 
273 1 56.1915 32.2969 -1.87827 0.0336103 -0.00563099 -0.0171955 
263 1 57.1481 31.6021 -0.814143 0.0182736 0.00010533 -0.0254816 
274 1 58.4977 31.7072 -0.697146 -0.00840898 -0.019898 -0.013788 
286 2 58.7651 32.4085 -1.32756 -0.0352213 -0.0312902 0.0784835 
257 1 56.4532 31.0309 0.244057 -0.00501138 -0.022506 -0.00287516 
266 1 52.3251 31.3603 0.628507 -0.0147319 -0.00140486 -0.00141964 
278 2 51.27 31.404 0.719031 -0.00621029 -0.0144274 -0.0794889 
265 1 53.42 33.6448 1.77781 0.011124 -0.00864684 0.000935047 
259 1 53.3272 32.1948 1.37693 0.0169446 -0.0111657 -0.00935583 
277 2 53.1839 34.3135 1.01902 0.0374924 0.0535258 0.0117465 
267 1 54.3916 34.1509 2.67043 0.0129967 -0.0176986 0.018813 
279 2 54.2528 35.2882 3.21306 0.00739046 -0.0408034 0.0782445 
276 1 59.0489 30.8215 0.267442 0.0091448 -0.00799981 0.00841183 
280 2 54.8393 33.8411 5.74352 -0.01581 0.0554174 0.055451 
255 1 55.2215 31.517 0.534034 -0.0451388 -0.0165787 0.0349093 
253 1 54.6908 31.9825 1.55119 -0.0291647 0.00853434 0.00687718 
272 1 58.8741 31.3621 3.90605 -0.0290518 -0.00496803 -0.0148309 
264 1 58.5608 30.5307 1.67837 -0.001385 0.00600857 0.000388202 
284 2 59.0178 31.7089 4.94518 0.0179783 0.0534153 0.00775988 
256 1 56.5633 31.4053 2.79224 0.0125558 -0.0176943 -0.00476257 
260 1 55.0031 33.2125 3.6204 0.010846 0.0160761 0.0055648 
258 1 57.2526 30.9875 1.58786 -0.0132606 -0.0192715 0.00358578 
254 1 55.441 32.0871 2.8351 0.0292062 -0.0132657 -0.00479329 
268 1 55.763 33.1573 4.93059 -0.0168443 -0.00235209 0.0182468 
262 1 57.5381 31.8153 3.9124 0.00268402 0.00976735 -0.014986 
275 1 59.2628 30.2283 2.94354 0.01705 6.18218e-05 0.0046834 
271 1 56.883 32.3729 5.19468 0.00508387 -0.0173499 0.0282382 
53 1 51.0028 12.1622 -9.23884 -0.00826993 -0.00857042 0.029557 
69 2 53.9923 12.0005 -10.4178 0.0150325 -0.0104485 -0.0397598 
65 2 51.0421 12.4159 -10.3038 0.0741488 0.065465 0.113297 
527 1 51.9508 23.1335 23.4376 -0.0141538 -0.000884829 0.0254808 
536 2 51.0442 24.3962 21.6344 -0.0305387 0.0736899 -0.0058402 
524 1 51.811 24.2056 22.4199 0.0101863 -0.0104151 -0.0024351 
514 1 52.6592 25.383 23.0126 0.0194528 -0.00921827 0.0142971 
535 2 52.7831 26.4329 20.9648 -0.0756923 -0.0281794 0.0428335 
523 1 52.8323 26.4445 22.0914 0.0161514 0.00200671 -0.0118226 