ITEM: TIMESTEP
130000
ITEM: NUMBER OF ATOMS
576
ITEM: BOX BOUNDS pp pp pp
-1.2000000000000000e+01 8.4000000000000000e+01
-1.2000000000000000e+01 3.6000000000000000e+01
-1.2000000000000000e+01 3.6000000000000000e+01
ITEM: ATOMS id type x y z vx vy vz 
56 1 11.6325 6.43673 -2.73932 0.00376408 0.0117791 0.0233241 
67 2 11.5525 8.50772 -0.977913 -0.0125158 -0.0136209 -0.0234155 
68 2 10.6917 6.9053 -3.39405 -0.0472732 0.0328433 0.0329572 
285 2 10.7736 8.2344 -10.8283 0.0144583 -0.00949493 -0.0316264 
273 1 11.8656 8.28568 -11.3202 -0.0280775 0.0164927 0.00219432 
282 2 10.6975 9.14315 34.9729 -0.0154423 0.157792 -0.000968022 
270 1 11.6434 8.71686 35.2603 0.00330975 -0.00115724 0.0266992 
322 2 -11.3421 12.047 27.5812 -0.00276088 0.0352674 -0.00434546 
571 2 1.90493 17.1799 -1.74712 -0.0269167 -0.0320165 0.0511767 
568 2 2.91271 14.93 -1.94541 0.00622659 0.0692328 -0.0388586 
559 1 2.63763 16.6996 -1.30173 -0.00783694 0.00018958 -0.0107302 
556 1 2.84453 15.1947 -0.883744 0.00104536 -0.0106159 -0.0272945 
572 2 0.635045 17.8084 -0.159414 0.00917047 0.0219818 0.0709768 
560 1 1.55911 18.1745 0.455771 0.0235307 0.00271527 -0.00543911 
570 2 8.6731 16.9301 4.77614 -0.102618 -0.0229623 0.0361976 
548 1 3.86214 14.9937 -0.0157263 0.00614424 0.0217088 -0.00403772 
555 1 4.24413 13.7825 -0.00327581 0.000933724 -0.0107562 -0.027934 
567 2 3.80096 13.1037 -0.714268 0.0138022 0.00424012 -0.023752 
553 1 5.02523 13.3748 1.12512 0.00957976 -0.00243207 -0.00865471 
550 1 2.7468 17.5931 -0.0700153 -0.00380217 0.00455543 0.00700482 
544 1 3.60216 16.9966 1.07151 0.00065834 -0.0258744 0.00575654 
542 1 4.3144 15.8243 1.19961 -0.00265779 -0.0163129 -0.00818711 
547 1 5.82505 14.1423 2.2194 -0.000700167 -0.0141652 -0.0148407 
541 1 5.48153 15.4823 2.07492 -0.000822021 -0.00339302 0.00903293 
543 1 5.63408 16.2901 2.99018 -0.0406899 -0.0354202 0.0087719 
554 1 6.48475 13.748 3.2564 0.00693587 0.00119445 -0.00233069 
566 2 6.71516 12.7556 3.69855 0.0178928 -0.0484948 -0.0734964 
549 1 6.77875 15.9544 3.9072 0.0234687 0.00750611 -0.0240088 
557 1 7.47867 14.7735 3.77407 0.0341143 1.48878e-05 -0.0112372 
558 1 7.66348 16.9605 4.59426 0.0025242 -0.0120533 -0.00789752 
569 2 8.53824 14.7184 4.12293 0.0532246 0.0635783 0.0291984 
575 2 1.10163 19.5346 2.18244 -0.00660758 -0.077682 0.0732206 
563 1 1.79308 18.8684 1.80433 0.0275512 -0.0257605 0.0140887 
576 2 2.89581 20.5049 4.09473 -0.0188544 -0.107832 0.0461335 
545 1 5.03945 17.6135 3.14864 0.011746 0.0228089 0.0124256 
546 1 3.89365 17.8951 2.20985 0.00487209 -0.0102679 -0.00436573 
551 1 5.59746 18.495 4.08368 0.00463884 0.0234041 0.00405364 
552 1 3.08005 18.8413 2.58078 -0.0112303 -0.0288226 -0.0196942 
562 1 4.72697 19.6108 4.58074 0.00628288 0.0392201 0.0318243 
574 2 4.9357 20.1643 5.41996 -0.00452499 -0.0900229 0.0653663 
564 1 3.54595 19.7999 3.67174 0.0352757 0.0158742 0.0124224 
561 1 6.95892 18.1565 4.6562 -0.0137302 -0.0099795 0.0191574 
573 2 7.36718 19.0405 5.35899 0.00430171 -0.00781911 -0.0479836 
565 2 5.43906 12.4496 1.22821 0.0350646 0.0760107 -0.0345053 
5 1 -11.5577 24.0312 27.0015 0.0141238 0.00483576 0.00333872 
8 1 -10.0401 27.4143 29.4065 0.0303195 0.0124425 0.00503474 
24 1 -10.5459 21.5413 27.5696 0.0145674 -0.00417731 -0.0145541 
28 2 -8.28224 27.487 31.3846 -0.0433711 0.054738 -0.101619 
16 1 -9.16674 27.0446 30.6487 -0.00785132 -0.00226079 -0.00171535 
1 1 -11.485 26.3227 27.3731 0.000939784 -0.042342 0.00694197 
12 1 -10.3234 22.6053 28.6145 0.00885571 -0.0199008 0.0020229 
35 2 -9.36768 21.2565 30.2771 -0.0820954 0.0209101 0.0764723 
23 1 -9.6932 22.2376 29.8915 0.00441579 -0.00517289 -0.0293925 
6 1 -10.6323 24.0264 28.1287 0.00600598 -0.000820154 0.0207338 
4 1 -10.0262 24.9866 28.8561 0.011443 0.0162347 -0.00425956 
10 1 -9.85325 24.8821 30.3786 0.00880341 -0.00167977 0.0038862 
2 1 -10.4359 26.4533 28.3513 0.00871536 0.00260632 -0.0270248 
20 1 -9.30671 23.5384 30.5409 -0.0230267 -0.00269539 -0.0192953 
32 2 -8.72696 23.6418 31.5296 0.0409936 0.0261286 0.000583102 
19 1 -9.78261 25.9697 31.4043 0.0111425 -0.0143818 -0.0339869 
31 2 -9.57554 25.0917 32.1805 -0.0729762 -0.0589722 -0.0264261 
36 2 -9.95987 20.7789 27.5632 0.00740035 -0.0702534 0.0570563 
324 2 -10.7612 14.2159 26.6501 -0.0183848 -0.00769929 0.0531454 
27 2 -10.6382 29.785 29.1409 0.0582 -0.0191056 -0.0212411 
15 1 -10.747 28.6703 28.7696 0.01922 -0.0114818 0.00236354 
312 1 -11.752 13.4641 26.4182 -0.00269989 0.0183692 0.0139828 
3 1 -11.8323 25.3404 26.4781 -0.0303503 -0.00136007 0.00935444 
323 2 -11.735 15.5927 26.9533 -0.0183813 -0.0243271 0.0154903 
22 1 -11.5866 21.7805 26.4884 0.0267933 0.00971429 -0.0165038 
13 1 -11.8627 29.014 27.8519 0.025442 0.0106736 -0.000425559 
131 1 17.0422 -6.6724 -5.6231 -0.00684251 0.024602 -0.00130635 
144 2 14.723 -8.44012 -5.81374 -0.00581781 -0.0412775 -0.0647374 
143 2 16.7988 -6.41927 -6.74626 -0.0375602 0.0402076 0.0731148 
140 2 19.1304 -7.29365 -6.08959 -0.0374429 0.0659879 -0.0827489 
128 1 18.3842 -6.91278 -5.32182 -0.00898374 -0.0132314 0.0230468 
72 2 13.0414 5.30261 -6.75157 -0.024064 0.0261916 0.0427438 
70 2 14.6223 4.12916 -6.99356 0.044532 0.0528893 -0.0768881 
49 1 16.9284 7.172 0.399273 0.0206419 0.0323262 0.00938317 
64 2 13.3822 8.95558 0.562019 0.0333839 0.0114019 0.0276409 
51 1 15.6881 7.5483 0.635657 0.00852632 -0.00420375 -0.00966049 
257 1 14.1712 9.15142 -11.2481 0.0265267 0.0111943 0.00533119 
286 2 13.7217 6.33456 -10.2052 0.033509 0.00291874 -0.0788716 
276 1 15.0239 7.87857 -8.93673 -0.00516617 -0.0140049 0.00719227 
288 2 14.7522 7.24709 -7.98188 0.114344 -0.0312439 0.0663144 
274 1 14.0731 7.32442 -9.84528 0.0297125 0.00922919 -0.0261911 
264 1 15.6103 9.0501 -9.1647 -0.0126339 0.0193865 0.00927153 
258 1 15.2429 9.65701 -10.4902 -0.0266575 0.00534523 -0.0130762 
263 1 13.2204 8.10276 -10.7577 0.00757471 -0.00975994 0.0151882 
275 1 16.6752 9.88865 -8.5041 -0.0198472 -0.0111479 0.01979 
287 2 16.676 9.76707 -7.42055 0.0323198 -0.000820112 0.0878887 
256 1 16.1204 10.7606 -11.0552 0.00538662 -0.00726617 0.0196727 
262 1 17.285 11.0574 -10.2849 -0.00899841 -0.00200862 0.00218086 
361 1 35.03 -11.4577 2.10613 -0.0270184 -0.0142107 -0.0249082 
351 2 35.9432 -4.39241 8.91604 -0.0194804 0.0290626 0.0646833 
272 1 17.0025 11.2208 -8.85554 -0.0314155 0.0196145 -0.000253312 
475 1 35.8469 11.8757 -0.858153 0.0086372 0.0160597 0.00788304 
61 2 17.7961 7.7213 0.671946 0.10528 0.00632561 0.0292006 
63 2 15.7871 8.24254 1.35609 0.00113439 0.0321984 -0.019062 
120 1 16.1086 -7.11763 -4.70952 -0.00599785 -0.00940381 -0.0140568 
142 2 13.2198 -8.6472 -4.01357 0.0307007 0.0254536 0.000580131 
114 1 16.4674 -7.20961 -3.27351 -0.00471088 -0.0375648 0.0153292 
113 1 15.7826 -7.68761 -2.07323 0.0035129 -0.023524 0.00215949 
126 1 13.9178 -8.77775 -0.206911 0.00778109 0.0132218 0.00156406 
138 2 13.0264 -8.70074 0.436398 0.0453387 0.0039499 -0.00994783 
117 1 15.2642 -9.36369 -0.051135 -0.00544018 -0.0176845 -0.0128144 
111 1 16.2385 -8.58288 -1.10204 -0.00169437 -0.00321654 0.00567022 
130 1 14.0719 -8.20296 -3.68855 -0.00965868 -0.0173046 0.026738 
119 1 14.4926 -8.27065 -2.58278 -0.00319215 -0.00629693 0.00719543 
141 2 12.5264 -8.67891 -1.25719 -0.105197 -0.0196721 -0.0195478 
129 1 13.5389 -8.83942 -1.52604 -0.0126767 0.00921356 0.0067985 
109 1 17.647 -8.76203 -0.902267 -0.0110529 -0.00787673 0.0240972 
132 1 14.8972 -7.85202 -4.91763 0.0152686 -0.00201571 0.0111091 
139 2 21.064 -7.33442 -4.19369 0.0198261 0.0281715 -0.00573109 
127 1 20.0394 -7.36721 -3.58987 -0.0227349 -0.00072086 0.0196315 
118 1 18.873 -7.3485 -4.0753 0.00851282 -0.0108019 0.0193157 
112 1 17.8324 -7.54196 -3.0982 -0.00633216 -0.00115429 0.0280023 
124 1 20.5673 -7.53105 -2.32166 -0.00925071 0.0216396 0.0102448 
116 1 19.6184 -8.51987 -1.64466 -0.00542604 -0.00680312 -0.00108793 
136 2 21.6839 -7.89178 -2.25095 -0.00439076 0.0316798 -0.00825617 
123 1 20.0906 -9.15104 -0.403667 -0.0108731 -0.00464178 0.0306713 
135 2 20.9328 -8.51968 -0.137179 -0.0530936 0.0726127 0.0827415 
115 1 18.0998 -9.67625 0.325522 0.0170611 -0.0273678 -0.0064735 
110 1 18.2724 -8.4368 -1.97493 -0.00653148 -0.0140459 0.000814324 
59 1 12.1807 6.19993 -3.97252 -0.0273109 0.0131647 0.0109612 
60 1 13.3648 4.92667 -5.70057 0.0146325 -0.0074629 0.00201141 
48 1 13.233 5.7056 -4.21246 0.0127724 0.0133761 0.0384417 
58 1 14.6629 4.47547 -5.87536 0.00432467 0.0357381 -0.0112113 
42 1 14.0571 5.28147 -3.13247 -0.027267 0.0105122 0.0214867 
39 1 16.258 4.83972 -2.471 -0.00256399 -0.00746991 0.00100789 
41 1 15.3033 4.95925 -3.43355 0.0101901 -0.0465997 0.00233904 
47 1 15.6377 4.20588 -4.71679 -0.00493813 0.00126083 0.0163611 
43 1 17.2011 6.37492 -0.725685 0.00702731 -0.0130984 -0.0186008 
57 1 16.5327 2.97556 -4.48264 -0.00233089 0.00869758 -0.0216059 
50 1 18.4072 5.89904 -1.00506 -0.0204056 0.0372893 -0.013486 
45 1 17.3538 3.96639 -1.98961 -0.00146966 -0.000877665 0.00803945 
53 1 18.5686 4.43008 -1.1999 -0.00438112 0.00511787 -0.00202645 
66 2 18.1506 2.28337 -3.46226 -0.0663767 0.0219312 0.0412793 
54 1 17.3645 3.04463 -3.267 -0.00913231 -0.0107283 0.0126945 
69 2 16.3147 1.96396 -4.93707 -0.0485907 -0.118556 -0.0177021 
65 2 19.3714 3.89177 -1.02005 0.032747 -0.047624 0.0632715 
37 1 16.1472 5.72669 -1.3251 -0.0187379 -0.00483373 -0.0233452 
40 1 13.9601 6.14405 -2.10217 -0.0229051 0.00737893 0.00303586 
46 1 12.5564 6.53625 -1.81687 -0.0016822 -0.00142749 -0.00902398 
55 1 12.4151 7.56097 -0.859951 0.0143333 -0.00187277 -0.0126167 
38 1 14.7219 6.15105 -0.994845 -0.00118136 -0.017792 0.00208514 
44 1 14.4834 7.12811 -0.272009 0.0106008 -0.0205554 0.00457176 
52 1 13.3751 7.96152 0.0806965 -0.00597317 -0.00463437 0.0295292 
482 1 34.9185 11.4129 0.0558755 -0.031051 -0.0405588 -0.00235054 
494 2 34.754 10.5065 0.0909073 -0.0282728 0.0602197 -0.0502707 
122 1 17.3257 -10.0347 1.37507 0.00682161 -0.0103805 0.00770337 
125 1 15.8829 -9.67876 1.24683 -0.0139092 0.00503494 -0.00486218 
137 2 15.9788 -9.2367 2.31878 0.117752 0.00142675 0.00096263 
134 2 17.7771 -10.5406 2.23609 0.0501023 0.0253659 0.0993266 
121 1 19.4103 -10.0676 0.450371 -0.0145763 0.00118474 -0.0235295 
133 2 19.6758 -10.7727 1.22705 -0.0144409 -0.00846633 -0.0901037 
349 2 34.8467 -2.36417 9.9104 -0.0241538 0.0400409 0.01014 
368 1 35.5655 -10.3898 0.0286684 0.0106621 -0.00775816 -0.00771587 
385 2 32.9642 -8.86966 1.24365 0.0325721 -0.0775774 0.0409772 
375 1 34.592 -9.32445 0.298839 0.00509986 -0.0196519 -0.0339804 
373 1 33.5077 -9.80893 1.14729 -0.0421441 -0.0192841 -0.011546 
367 1 33.7027 -10.8716 2.21749 -0.00105297 0.0130822 -0.00171142 
386 2 32.5074 -10.4464 3.99915 -0.0329187 0.00270569 -0.0558403 
536 2 28.8446 4.18676 -11.9167 -0.0310624 0.0523 0.00307522 
387 2 34.1474 -8.54843 -0.31094 0.0628452 -0.0347867 -0.0171271 
374 1 33.3132 -11.0706 3.59262 0.000148079 -0.00347393 -0.0034504 
62 2 19.2966 6.44233 -0.615819 -0.0413117 -0.00190891 -0.00128886 
271 1 18.4412 11.7738 -11.0757 -0.0302293 0.0104743 -0.00108952 
388 2 35.6923 -10.0016 -2.16231 -0.0214691 0.0855686 -0.00912012 
337 1 35.5716 -2.94956 10.3137 -0.027109 -0.0250918 -0.0239062 
362 1 35.9586 -11.3627 0.945696 -0.000686669 -0.000402978 -0.0328394 
539 2 29.0882 6.50354 -11.4974 -0.00581817 0.0137416 -0.125478 
497 2 33.3908 11.8387 1.23988 -0.0180356 -0.0546737 0.022543 
350 2 34.7627 -0.667606 12.1862 0.0959548 -0.0890243 0.0404894 
87 1 32.831 -6.8045 21.8708 0.00495968 0.010984 -0.00389623 
85 1 33.393 -6.17379 20.6529 0.021547 0.000813562 -0.00214348 
79 1 34.5718 -5.40901 21.2492 0.0127902 0.00853986 0.0276246 
73 1 35.4249 -5.55912 22.3685 0.00953624 0.0206961 -0.0130209 
99 2 31.85 -6.6585 21.7516 -0.0406727 -0.0392958 -0.00195862 
97 2 32.8007 -5.96381 19.6579 0.0409529 -0.0662453 0.0323887 
74 1 35.0938 -7.01229 22.9718 0.0162989 0.00167706 -0.0147758 
80 1 33.7671 -7.61602 22.9278 -0.0114015 0.0204516 -0.0220133 
88 1 33.8621 -9.08162 22.7662 -0.0163204 0.0152742 -0.0398593 
98 2 33.4576 -3.67175 20.7424 0.000692008 0.0207803 0.0257112 
86 1 34.2089 -3.90467 21.3678 0.0216391 0.0281712 0.011775 
101 2 34.1078 -2.04516 22.7092 0.0482018 -0.0139516 0.0277839 
81 1 35.7817 -3.28739 22.9742 0.0118604 -0.00048649 -0.00798118 
103 2 35.4456 -10.3297 22.1487 -0.0693704 0.130803 -0.09858 
89 1 34.4941 -3.07321 22.3513 0.0238687 -0.0103736 -0.00538642 
102 2 35.8701 -1.33812 23.7293 0.00384622 0.103013 -0.0518158 
90 1 36.012 -2.30342 24.0564 0.0249336 0.00863774 -0.0115794 
100 2 32.9662 -9.62124 22.1625 0.0271958 0.10332 0.0078129 
91 1 35.1738 -9.57841 23.0546 0.00634797 0.00527438 0.00244396 
279 2 19.2033 10.7885 33.3134 0.0117834 -0.0899187 -0.0127561 
522 1 31.7895 7.21394 29.4657 -0.0102249 0.0139367 0.00541838 
525 1 30.5837 7.47964 30.0537 0.00326334 -0.00945234 -0.0129006 
521 1 34.0518 6.33695 29.9127 0.0041779 0.0202853 -0.0183667 
533 2 34.4534 6.91373 29.0842 -0.0754509 -0.0327647 -0.045627 
537 2 29.7895 8.05102 29.4365 -0.0100792 -0.101642 0.0369614 
523 1 30.3053 2.53052 34.8571 -0.010849 0.00890502 -0.0157793 
530 2 34.9528 4.29456 29.7358 -0.00722447 -0.0704517 -0.00480556 
505 1 32.2844 4.54283 32.0276 0.000961393 0.000180134 -0.0161091 
517 1 34.1335 2.91552 32.1089 -0.0112531 -0.00999592 0.0248124 
529 2 35.3383 2.56702 32.1784 0.0159728 -0.0295377 -0.0295489 
519 1 33.6626 2.69852 33.4503 -0.00768444 -0.0180014 0.00510824 
514 1 30.3401 3.97068 34.7085 0.0222766 -0.013819 -0.0115451 
520 1 31.4157 1.7111 34.5592 -0.00977956 0.00167582 0.0049585 
508 1 31.1354 4.85612 33.9957 -0.0157175 -0.0186232 -0.0244578 
506 1 31.9832 3.99362 33.2641 0.00857127 0.0174559 4.73498e-05 
512 1 32.1878 2.51786 33.5406 -0.00744614 0.0208953 0.0203047 
531 2 34.1763 3.32937 34.1807 -0.0305449 -0.0222164 0.0092258 
511 1 33.6638 4.20827 31.5552 0.00164468 -0.0119608 -0.0077639 
518 1 34.1864 4.92414 30.2857 -0.0351532 0.000455263 0.0267615 
532 2 31.6654 0.591858 35.0219 -0.0910121 -0.126031 -0.00646391 
507 1 32.1298 5.90569 31.6556 -0.00312806 -0.0154798 0.00738848 
524 1 29.634 4.72973 35.6108 0.0100423 -0.00255361 -0.00112073 
281 2 12.5875 8.83198 32.1871 -0.0433826 -0.0191723 -0.0321648 
534 2 31.7053 7.55407 28.5032 0.00152228 0.0408482 -0.0699268 
277 2 17.2888 10.882 32.0909 -0.025189 0.0518161 0.0140499 
278 2 14.5931 10.1141 31.3866 -0.0751957 -0.0258902 -0.0593003 
266 1 14.4845 9.65034 32.6093 0.00496866 0.00713491 -0.00102902 
261 1 12.9746 9.05225 34.4598 -0.00119582 0.0064595 -0.0112602 
269 1 13.2499 9.14111 33.002 -0.00975508 0.00618924 -0.00185474 
255 1 14.2563 9.42435 35.2603 0.0234209 0.00758426 0.0115434 
259 1 15.7612 9.74684 33.3359 -0.00067701 -0.0182908 0.0161475 
253 1 15.6019 9.73527 34.9402 -0.00795771 0.00434474 -0.0089577 
265 1 16.8689 10.4963 32.9377 -0.021449 0.0165496 -0.0187527 
254 1 16.4296 10.4696 35.5539 0.003407 -0.00167041 -0.0135513 
260 1 17.5225 11.4845 34.9063 0.0120273 -0.011253 0.0153055 
535 2 29.7636 1.76397 35.2738 0.0719326 -0.0104924 0.00879931 
267 1 18.1191 10.8086 33.8365 -0.0089974 -0.0127387 -0.00800699 
527 1 29.6293 6.18291 35.553 0.0064086 0.0127749 -0.00103253 
513 1 32.7149 6.71279 30.4825 0.0100708 0.0142243 -0.00687874 
516 1 30.0643 6.9116 34.2355 0.00114256 0.0145589 -0.00460524 
540 2 29.5078 8.84452 34.4904 0.0638589 -0.0144184 0.0279784 
528 1 30.1251 8.35693 33.6688 -0.0110826 -0.0188405 0.0143095 
538 2 30.1593 10.0381 32.1033 -0.0290081 0.00022434 -0.0156317 
526 1 30.1913 8.87564 32.3797 0.0262638 -0.0116136 0.0136359 
509 1 31.2898 6.68579 32.2819 0.0323214 -0.0245731 -0.00409567 
510 1 31.0752 6.29469 33.5424 0.0147088 0.0123047 0.0142013 
515 1 30.4747 7.73841 31.5703 0.0109234 -0.00945528 0.00775112 
338 1 35.481 -1.48548 12.555 -0.0155932 -0.0106891 -0.000585343 
241 2 28.4764 17.5183 -5.40002 0.0296447 -0.177964 0.0692974 
243 2 30.9117 18.0574 -6.26404 0.0181654 0.050183 0.0244612 
242 2 27.5219 16.0477 -3.5023 -0.0733479 -0.0608939 0.0358838 
233 1 28.0104 16.3985 -1.37301 0.0255093 -0.0252721 -0.00825903 
245 2 27.3717 15.5881 -1.15683 0.0228086 -0.0207134 -0.0426976 
225 1 29.0409 17.1019 -0.574783 0.00865655 0.0151065 0.00369472 
230 1 28.3535 16.439 -2.78614 -0.0073971 0.0117003 -0.013487 
219 1 30.3062 17.8519 -0.748281 0.0122574 0.00349619 0.0158847 
223 1 29.5048 17.1675 -3.2318 0.000539778 -0.02216 0.011342 
217 1 30.152 18.0139 -2.14104 -0.0104987 0.0138284 -0.0156385 
221 1 31.3816 17.8894 -0.0979831 0.0161849 0.0112551 0.00710783 
229 1 29.4576 17.4917 -4.64486 0.0264927 -0.00439132 0.0147721 
231 1 30.6751 17.8093 -5.16632 0.0101937 -0.0151225 0.0153561 
222 1 32.4092 18.8337 -0.659328 -0.00951962 -0.00963232 -0.00674812 
218 1 31.2347 18.6227 -2.74517 0.0221939 0.0159516 -0.00431289 
224 1 31.4939 18.2917 -4.12943 -0.0181866 0.00491757 0.0111034 
244 2 32.2757 19.0514 -5.91168 0.00355236 -0.0451574 0.0499116 
220 1 32.3882 18.7749 -2.10328 -0.0176113 -0.0299357 0.0162836 
232 1 32.4533 19.1315 -4.88094 0.00948432 -0.00144597 0.00233092 
239 1 34.2167 20.4165 -0.764831 0.0166418 0.00663658 -0.0103739 
236 1 34.4261 20.3869 -2.16532 0.00648882 0.00553603 0.00210863 
235 1 33.7954 19.3721 -4.26487 -0.00284017 -0.0368633 0.0155467 
226 1 33.3765 19.6303 -2.82667 0.0102588 0.00776655 -0.0208372 
247 2 34.2218 20.2009 -4.65922 0.0323764 -0.00251409 0.0954402 
248 2 34.8754 21.546 -2.04095 0.0422367 -0.0887961 -0.12612 
234 1 29.1244 16.8886 0.885746 0.015512 0.00783684 0.0094954 
246 2 28.6156 16.1272 1.43385 0.0777751 -0.0828819 0.0335182 
249 2 29.9074 17.6323 2.92801 -0.00335458 0.0418185 0.0123938 
237 1 29.9963 17.6845 1.67511 -0.0201542 0.00559367 0.0230945 
227 1 31.2785 18.0187 1.1941 0.00109534 0.0120821 0.00395689 
250 2 31.3492 19.25 2.82496 0.00272069 0.0639757 0.0113969 
477 1 34.7919 13.6621 1.07389 -0.0326675 0.00637672 0.0246984 
363 1 35.328 35.472 2.95117 -0.0147455 0.00760273 -0.0198604 
498 2 33.2704 14.0014 2.57386 0.00872455 -0.00571151 -0.0238078 
486 1 34.1581 14.6903 1.99559 0.0160986 0.0253721 -0.0329418 
377 1 33.4043 35.9686 4.54786 -0.0239382 0.00101017 -0.0156958 
251 2 35.3155 20.5959 -0.215319 -0.0208143 0.0176148 -0.0267189 
228 1 33.5935 19.3882 0.00486236 0.0124569 0.0136087 -0.00512659 
238 1 32.0497 18.9375 2.05658 0.0407345 0.00446248 0.0211356 
240 1 33.3252 19.3517 1.63405 0.0197775 -0.010032 0.00746392 
252 2 34.3383 19.0796 2.01805 -0.0494171 4.61406e-05 -0.074417 
378 1 34.9408 34.1128 5.04357 0.0213738 0.00709415 -0.0309947 
369 1 34.481 35.031 4.03666 0.00917514 0.00338039 -0.0226818 
489 1 34.9484 15.7503 2.31081 0.0028952 -0.0117927 0.0259004 
390 2 34.4714 34.4974 6.02096 -0.0411824 0.0339915 -0.0421181 
501 2 34.6549 15.8632 3.32519 0.10182 -0.02411 0.117946 
485 1 34.2077 12.3708 0.895293 0.00247055 -0.0100256 -0.0103687 
389 2 32.6756 35.7851 5.36069 -0.0064817 0.0742496 0.0435718 
284 2 17.0033 12.2038 -8.29583 0.0622811 -0.0773284 0.0507239 
283 2 19.2191 12.0409 -10.5273 0.0222225 -0.00962634 0.0224199 
268 1 18.2937 12.4469 35.6963 -0.000498343 -0.00420071 0.0103782 
280 2 19.2089 12.6109 35.3612 -0.0612058 0.0512992 -0.064822 
376 1 36.2168 -10.1819 -1.38452 -0.00752362 0.0155671 0.00336451 
207 2 41.0328 -5.78564 -0.842505 0.0210798 -0.00595623 0.0422098 
379 1 36.8708 -11.4791 -1.39405 -0.0109394 -0.0204004 -0.000939472 
340 1 38.2267 -5.35906 9.66988 0.0056239 0.0134787 0.0192163 
339 1 36.2175 -4.05804 9.81057 0.0146859 -0.00667429 -0.00336707 
205 2 43.1465 -5.94207 -0.798977 0.0709504 0.0234593 -0.0783951 
493 2 36.319 9.78995 -2.0902 0.0388844 0.0376937 0.0650584 
481 1 36.6369 10.7527 -1.57369 -0.0111824 -0.00478143 0.00585578 
352 2 38.3936 -4.6667 8.76591 -0.0110055 -0.0250575 -0.0628435 
495 2 38.7379 10.2311 -2.26429 -0.0703144 -0.0132961 -0.0499586 
211 2 37.3053 -6.75442 2.26942 -0.0431914 0.0182899 0.0108766 
199 1 38.433 -6.77609 2.66227 0.0149661 0.00219618 0.0137619 
196 1 39.146 -6.82371 1.35384 -0.0267477 0.0253388 -0.0315486 
208 2 38.5659 -6.01213 0.63051 0.0236951 0.081382 -0.139785 
212 2 37.9454 -6.7762 4.99427 -0.0621058 0.00849256 0.140524 
190 1 39.4579 -7.19983 3.71439 -0.0127624 0.00761186 0.0177189 
200 1 38.9338 -7.26405 5.12626 -0.000352371 0.016294 -0.0210382 
184 1 40.6512 -8.07038 3.56343 0.0183883 -0.00240963 -0.00921822 
188 1 40.6728 -6.74366 1.35067 0.0085483 0.00223099 0.0125518 
186 1 41.202 -8.72159 4.77758 0.00566243 -0.0100024 -0.0289848 
195 1 41.3766 -6.42935 0.0350019 0.00734606 0.0114519 0.0108285 
182 1 41.2397 -7.45779 2.4491 0.005535 0.00695876 0.00188371 
483 1 38.0645 10.8917 -1.86836 -0.0202955 -0.0148969 -0.00767031 
193 1 42.7695 -6.72587 0.0495815 -0.0127419 -0.0105004 -0.0183003 
187 1 43.3618 -6.99824 1.36825 0.00626988 0.0215398 -0.0146751 
194 1 44.7211 -7.15418 1.0169 0.0146468 0.0108976 -0.0198313 
206 2 45.1928 -6.97717 -0.060846 0.0621425 0.059888 -0.0386088 
181 1 42.6888 -7.67355 2.48232 -0.0261717 0.0113133 -0.0150038 
197 1 45.2589 -7.59406 2.32533 -0.000458706 -0.0105431 -0.0143368 
183 1 43.5264 -8.10812 3.50537 -0.0193063 0.000301768 0.0147183 
189 1 44.9748 -8.70081 3.37304 0.00852564 0.00227153 -0.016076 
209 2 46.2838 -7.37673 2.95306 -0.00724727 -0.0252514 -0.0350322 
185 1 42.654 -8.79588 4.41393 -0.0108538 -0.014961 -0.00158812 
198 1 45.5414 -9.3601 4.53522 0.00924311 0.00634905 0.0252061 
210 2 46.5582 -9.52428 4.54139 -0.00341271 -0.0189667 -0.00957162 
201 1 44.6028 -9.51191 5.68947 0.00207962 0.0288306 -0.00108024 
331 1 35.9333 -2.46784 11.7112 -0.0412296 0.0203179 -0.021651 
203 1 39.5327 -8.16446 6.18794 0.0126578 0.0260855 0.0112273 
204 1 41.3145 -9.37947 7.15289 -0.00759327 0.00164875 -0.00136267 
356 2 40.3789 -7.9589 11.8214 0.0206579 0.0676276 0.0236529 
334 1 39.1337 -6.18545 11.6087 -0.00846156 0.00909912 -0.00836761 
192 1 40.6375 -8.87813 5.97971 0.00569932 -0.00710869 -0.0156746 
216 2 40.9055 -9.8169 7.96985 -0.00959743 -0.0143439 -0.0124936 
215 2 39.0968 -8.00979 7.23064 0.056301 -0.0385717 -0.0162678 
343 1 39.2165 -6.3608 10.1583 0.00441715 0.0107995 -0.00724204 
355 2 39.0609 -7.09223 9.36867 -0.0619834 0.00564537 -0.0194589 
213 2 44.6199 -9.81753 6.67172 0.0296852 0.0148796 0.0141698 
202 1 42.5763 -9.64539 6.70262 0.0129573 0.0121108 -0.017786 
191 1 43.199 -9.75611 5.40941 -0.0162529 -0.0179655 0.00163067 
214 2 43.2385 -10.0382 7.52489 0.048238 -0.0233809 0.0543366 
326 1 37.7583 -4.31661 11.5947 0.00727621 0.0410968 -0.0132117 
364 1 37.2131 -11.8442 0.885096 0.0250067 -0.0171493 -0.0188972 
332 1 37.637 -4.25852 10.2891 -0.00162091 -0.029459 -0.00453341 
347 1 40.8003 -6.73321 13.2783 0.00311777 0.000777009 0.0149668 
359 2 41.5916 -7.60149 13.1983 0.0181004 0.0197912 0.137114 
336 1 40.492 -5.46855 14.0929 -0.0158447 -0.00344057 0.00498688 
330 1 39.1622 -4.86008 13.4065 -0.0154363 -0.00469919 -0.000956493 
76 1 36.156 -7.36608 23.8651 -0.0108044 0.00943349 -0.0305308 
325 1 36.9657 -3.36807 12.3979 -6.41435e-05 -0.00327615 -0.0172643 
460 2 59.6252 8.31095 27.8539 0.00951727 0.0062472 0.0466234 
327 1 37.8985 -2.80589 13.4251 0.00826563 0.00569022 -0.0123541 
341 1 36.1349 -1.32127 13.8997 -0.00627329 -0.000859713 -0.0154367 
457 2 56.1696 11.4121 29.92 0.0146205 -0.020013 -0.0865443 
333 1 37.4269 -1.84037 14.2837 0.00183406 0.00385165 0.00125602 
329 1 39.1044 -3.47258 13.8017 -0.0162567 0.00683972 0.00141566 
335 1 39.873 -2.84667 14.7671 0.00166799 0.0154 -0.0148723 
342 1 38.2142 -1.72348 15.4259 -0.00677616 -0.0111056 0.00836576 
354 2 37.8621 -0.892864 16.2023 -0.0615945 0.0410419 0.0056257 
346 1 41.0367 -3.59375 15.2717 0.0112151 -0.012197 0.00996797 
345 1 39.6827 -1.53714 15.3323 -0.00571864 -0.0027081 0.00562724 
357 2 39.7185 -0.537303 15.9842 0.00259232 0.0203203 -0.00563917 
328 1 38.4654 -5.28357 12.218 0.0033497 0.00190853 0.00287391 
360 2 41.9726 -5.33094 15.6891 -0.0478378 0.0840351 0.125846 
348 1 41.3802 -4.75316 15.1087 0.0093361 0.0109097 0.00172832 
358 2 41.6782 -3.34783 16.2514 0.0108129 -0.0657673 -0.0122053 
105 2 37.069 -1.86655 25.6643 -0.086481 -0.120495 0.036141 
95 1 37.8262 -8.22699 25.7666 -0.0235575 -0.0238524 -0.0110337 
107 2 38.3886 -8.65702 26.7701 0.0161669 -0.0528385 -0.0260512 
78 1 37.0781 -6.38495 24.3157 0.0121403 0.022944 0.0246005 
84 1 37.7415 -6.7755 25.5297 0.00247996 0.0264724 -0.0132857 
92 1 37.6016 -9.15723 24.5454 -0.013696 0.00237332 -0.00151569 
104 2 37.7857 -10.1247 24.2602 0.0450465 -0.114095 -0.0117525 
82 1 36.3043 -8.96239 23.8581 -0.00947083 -0.00081584 -0.0109403 
83 1 37.096 -4.12094 25.1555 0.00787291 0.0029133 0.0145398 
106 2 37.852 -3.43102 27.0634 0.0941223 -0.118707 -0.0118834 
94 1 37.7786 -4.49153 26.3705 0.0347936 -0.0240413 0.00989913 
108 2 38.6902 -6.21621 27.4798 0.0270502 -0.0584819 -0.00541395 
96 1 37.8874 -5.77272 26.6601 -0.0217807 0.0108355 0.0133494 
77 1 36.5769 -5.11409 24.3078 -0.00551145 -0.0117734 0.00927722 
440 1 59.4144 10.5769 28.4736 -0.000551723 0.00808315 0.00307288 
344 1 39.9319 -7.09315 12.3783 -0.0168217 -0.000602872 0.00934269 
445 1 57.2815 11.3457 29.7961 -0.028706 -0.0212064 -0.0103897 
459 2 58.0749 9.37371 28.6128 0.0196997 0.0153671 0.0381655 
447 1 57.9331 10.4332 28.7959 0.00687345 -0.0431714 -0.0207102 
93 1 36.8915 -2.67438 24.9948 -0.00716744 0.0364058 -0.0172068 
75 1 36.0167 -4.68361 23.1011 -0.01854 -0.00898297 0.0166437 
353 2 35.9648 -0.302405 14.3944 -0.0317086 0.00946628 -0.0440792 
496 2 40.236 12.5496 -3.52743 -0.00117794 0.0243347 0.0243934 
469 1 36.4362 13.2317 -1.08966 -0.0212493 -0.0179939 0.0175018 
391 2 36.8481 35.5856 -2.0764 0.0526032 0.074686 -0.0619292 
476 1 38.4878 12.4622 -1.99116 0.00524193 -0.00250952 0.0310664 
470 1 37.6802 13.6775 -1.56246 -0.0249327 -0.010212 0.0167862 
472 1 38.4432 14.7302 -0.853811 -0.00749225 -0.00147082 0.0224243 
474 1 37.8685 15.3887 0.147904 -0.00920278 -0.0257766 -0.0239597 
484 1 39.7102 13.0829 -2.55518 0.0295719 -0.014617 0.0371697 
487 1 40.4889 14.0306 -1.85971 0.012386 0.00239504 0.0169987 
478 1 39.885 14.9774 -1.01247 -0.0170228 -0.00310295 0.0258097 
499 2 41.6517 14.2948 -2.01471 0.0951977 -0.0667163 -0.0428798 
500 2 41.3597 16.5732 -1.73207 0.0679045 0.0663706 -0.0565634 
488 1 40.3003 16.3711 -0.97691 0.0142101 -0.0156169 -0.0062527 
491 1 39.6203 17.1682 -0.0864117 0.0043673 -0.00395001 -0.00281463 
392 2 39.1027 34.9335 -2.10027 -0.0675106 0.02996 0.0267737 
365 1 36.6443 35.029 3.02882 0.0282806 -0.00251882 -0.0108241 
471 1 36.0341 13.8087 0.270065 -0.0212839 -0.00191286 0.0160776 
480 1 38.5743 16.5738 0.908459 0.0128897 0.00688068 0.0128579 
503 2 39.6953 18.174 0.105286 0.120445 0.0442295 0.0233417 
473 1 36.6097 15.1503 0.616197 -0.0103805 0.0141222 -0.00581796 
479 1 36.1904 16.1293 1.66733 -0.0408214 0.011601 0.00290385 
490 1 36.7301 17.2476 2.54703 -0.0373887 -0.00477626 -0.0333287 
372 1 38.7838 34.6676 1.66275 0.00313122 0.0218546 -0.0105577 
492 1 37.9613 17.5076 1.82906 0.00707751 0.00790617 -0.0233814 
502 2 35.8705 17.9103 3.0961 -0.0292596 0.000778583 -0.00518359 
504 2 38.5198 18.3627 1.63779 -0.0288325 -0.0853021 0.0521227 
396 2 40.7033 34.3776 3.087 0.0402004 -0.0893148 -0.0208933 
380 1 39.1784 35.2815 -0.878261 -0.00055305 0.00233313 0.00560332 
371 1 37.1314 33.7521 3.51785 -0.00839018 0.0169619 0.0057898 
382 1 38.666 33.708 3.7174 0.00636714 0.00517931 0.00611453 
381 1 36.3072 33.6831 4.72501 -0.000821523 0.0157451 -0.0204038 
394 2 38.9282 32.7194 4.23338 0.0979367 0.0419106 -0.0573281 
384 1 39.65 34.3733 2.9791 0.00665903 -0.000690583 0.00792779 
366 1 37.6573 35.448 2.00073 -0.0293688 0.0204825 -0.0161257 
383 1 39.4138 34.4776 0.383766 0.00612032 0.0268427 0.00949791 
395 2 40.339 34.1662 0.0833089 -0.021871 -0.0580977 -0.00465211 
393 2 36.4878 32.662 4.93876 0.0428322 0.0153174 -0.0533887 
370 1 37.8799 35.8897 -0.506453 -0.0112538 0.00822762 -0.00355886 
449 1 58.3924 13.7224 32.4761 0.0280908 -0.0207328 0.00561558 
418 1 59.9118 26.7814 28.4371 -0.00944151 0.00546268 0.0134163 
430 2 59.4334 26.3638 29.3426 0.0421394 -0.0851669 0.0595362 
429 2 58.3984 26.098 25.6282 -0.0183291 -0.044802 0.0150982 
433 1 59.5733 12.5445 29.8575 -0.00502425 0.0144194 0.0135643 
458 2 56.5339 13.2218 31.2846 0.000893844 -0.0238386 -0.00552731 
461 2 58.14 14.6984 32.9335 0.0934238 -0.0285114 -0.053221 
441 1 59.9402 13.5335 32.3765 0.00592945 -0.00538289 -0.000767823 
439 1 58.1619 12.3793 30.285 -0.00818915 -0.00242808 0.0260988 
446 1 57.5923 13.0484 31.515 0.0186673 -0.0163946 -0.000935485 
417 1 59.3877 25.5661 25.8581 -0.0268405 -0.00273993 0.0147057 
426 2 59.5426 23.517 24.4443 0.0221403 -0.0121321 0.0148455 
414 1 59.9155 24.4186 25.058 0.00461722 -0.000356225 0.0336844 
462 2 59.566 13.4525 34.4467 0.0720438 -0.0183911 -0.0357902 
179 2 79.719 10.4239 -3.758 -0.0407021 0.0486057 -0.0392861 
305 1 78.5196 11.3945 24.2196 -0.00479131 -0.010997 -0.0143579 
173 2 76.5321 -10.4444 28.3951 -0.031752 0.00242303 0.0362799 
434 1 60.2686 11.6583 28.9088 0.0149007 0.0119898 -0.0177812 
463 2 62.2221 8.7938 27.3558 -0.0122605 0.0814401 -0.0365151 
455 1 64.7145 11.3123 29.3244 0.00873982 -0.00650168 0.00866315 
170 2 78.9356 -10.9923 28.284 -0.118836 0.040353 -0.0625213 
161 1 76.6443 -11.6049 28.3821 0.0106414 0.0243941 0.022961 
452 1 63.9638 10.808 28.2793 -0.000363701 -0.00275994 0.0268102 
436 1 61.794 11.3326 29.262 0.00102682 -0.011849 -0.00749879 
442 1 62.454 10.59 28.1698 0.00386216 -0.0219108 0.036028 
464 2 64.6297 10.2251 27.5928 0.0052879 0.123758 0.00991847 
451 1 61.6397 9.31374 27.9168 0.0279656 -0.000990025 0.0246707 
448 1 60.2125 9.44273 27.947 0.0120321 -0.0169274 0.0270306 
317 2 77.4935 10.986 24.3591 -0.0260992 -0.0733403 -0.0170466 
309 1 81.7923 10.3416 26.2232 0.0391939 -0.021968 -0.0148532 
321 2 82.8663 10.0101 26.5663 0.0144985 0.0389776 -0.0110429 
299 1 82.5051 11.8458 26.304 -0.00415614 0.00157601 -0.0126551 
306 1 80.5227 10.136 25.5955 0.0274964 0.00257385 -0.0182671 
178 2 73.7616 -11.8857 22.7819 -0.0437352 -0.0575193 -0.00999219 
297 1 79.7506 11.1177 24.6654 -0.000372667 -0.0202209 0.0152379 
318 2 80.2536 9.09792 26.0068 -0.00469966 -0.0474667 -0.131639 
467 2 65.8333 11.4602 29.2987 -0.0574315 -0.0340171 -0.0680366 
174 2 74.2508 -11.36 27.788 0.0338468 -0.0241105 -0.0907053 
158 1 78.0365 -11.9187 28.2033 0.00851123 -0.0196234 -0.0292934 