ITEM: TIMESTEP
320000
ITEM: NUMBER OF ATOMS
576
ITEM: BOX BOUNDS pp pp pp
-1.2000000000000000e+01 8.4000000000000000e+01
-1.2000000000000000e+01 3.6000000000000000e+01
-1.2000000000000000e+01 3.6000000000000000e+01
ITEM: ATOMS id type x y z vx vy vz 
206 2 -4.5126 4.46336 -1.4496 0.0136745 -0.0700689 -0.0446795 
194 1 -4.23195 5.14309 -0.702748 0.0168456 0.00143295 -0.00961482 
205 2 -6.47949 5.90426 -1.79654 0.0583458 0.0309298 -0.0599058 
207 2 -7.26338 8.19698 -2.41454 0.0290137 0.0400262 -0.0280621 
193 1 -5.66493 6.75951 -1.79704 -0.0113371 0.000326311 -0.00691672 
195 1 -6.1218 8.09231 -2.05282 -0.0080184 -0.0170733 -0.00232465 
208 2 -6.99113 9.83305 -1.47369 -0.0466255 -0.0496118 -0.0686812 
187 1 -4.34533 6.56031 -1.07207 -0.0338699 -0.00247257 -0.000187424 
196 1 -6.25117 10.1466 -0.64557 -0.0243621 0.00188728 0.00796969 
188 1 -5.40885 8.95077 -1.05946 0.0103693 -0.00855018 -0.00755428 
199 1 -5.88379 11.452 0.0551448 -0.0195959 -0.026327 -0.0173167 
387 2 9.73294 -6.78 -0.0499741 0.0164568 -0.0286356 -0.0313982 
375 1 10.5682 -6.47923 0.466032 0.0154559 -0.0294351 -0.0153572 
373 1 11.6635 -6.10593 -0.278252 0.0122942 -0.0173444 -0.0112851 
214 2 -3.4199 7.34964 5.68474 0.0277095 -0.0250081 0.0351825 
392 2 5.86316 -2.9657 0.894658 -0.000458238 0.0115995 -0.0458037 
391 2 6.7087 -5.14922 1.44898 -0.0238927 0.0993986 -0.0263819 
379 1 7.59266 -5.13264 1.91846 0.0331074 0.0177663 -0.00604521 
388 2 8.11961 -7.29905 1.68208 -0.0131118 -0.115695 0.0292926 
376 1 8.51108 -6.22586 2.01526 -0.0215637 -0.00599335 0.012872 
368 1 9.94049 -6.10527 1.78356 0.0135891 -0.00624521 -0.00595686 
362 1 10.1535 -4.76313 1.65992 0.011954 -0.0279041 -0.0168534 
361 1 11.5182 -4.39567 1.14642 0.0112794 0.00854055 -0.0174013 
385 2 12.0205 -6.77314 -1.17438 0.0445365 0.101779 -0.0476833 
364 1 9.33013 -3.63891 1.2542 -0.00236596 0.0122827 -0.00506216 
365 1 11.2481 -1.9116 1.20234 -0.00145481 -0.0114786 -0.031632 
370 1 7.8587 -3.77319 1.40021 0.0140764 0.0164635 0.00939483 
366 1 9.68086 -2.21197 1.05713 -0.0278004 -0.0031891 -0.0210434 
380 1 6.88033 -2.85368 0.80162 -0.0163483 -0.0110956 -0.0136897 
383 1 7.2189 -1.47693 1.17495 0.0110379 -0.00746049 -0.00768529 
372 1 8.61028 -1.27416 0.984729 0.0339311 0.00770194 -0.0525426 
371 1 11.7746 -0.520162 1.05522 -0.00290354 -0.00841811 0.0160199 
395 2 6.26307 -1.05236 1.62459 0.0883834 0.0317526 0.0220542 
209 2 -3.57363 3.83532 1.02952 -0.0311908 -0.0643059 -0.00728268 
198 1 -2.64498 5.17565 2.43771 0.017851 0.00730172 -0.00731479 
197 1 -3.43134 4.84805 0.500094 -0.021898 0.0063269 0.0112616 
189 1 -3.01593 5.78192 1.1976 0.0125051 0.0247782 -0.0320453 
210 2 -2.66094 4.11318 2.24745 0.0911167 -0.00376767 -0.00901612 
201 1 -2.32718 6.10188 3.42153 0.0117371 -0.0143451 -0.0292909 
213 2 -2.33057 5.97688 4.37988 0.0131241 -0.0103275 0.0142996 
394 2 9.64859 -0.0232499 2.70012 -0.114545 -0.0920117 0.106429 
390 2 10.7352 0.446905 -0.324111 0.00944357 -0.0646899 -0.0468347 
384 1 9.4884 0.0999572 1.6163 -0.0232157 -0.0088973 -0.0071926 
382 1 10.6001 0.412697 0.641897 0.0122404 -0.016047 -0.0409449 
396 2 8.42086 0.581129 1.46129 0.0800783 0.00269551 0.00469646 
192 1 -3.96319 10.0588 3.341 0.000343998 -0.00814035 0.00719143 
203 1 -4.57303 11.6839 3.38173 0.0183264 0.0220662 -0.020784 
183 1 -2.95146 7.29154 1.03178 -0.00886389 -0.0127317 0.0133889 
202 1 -2.94232 7.9701 4.78706 -0.00456427 0.00860079 0.00451828 
191 1 -2.40451 7.55227 3.4388 -0.00221344 0.00445613 -0.0199989 
204 1 -3.58831 9.14019 4.29131 -0.00736895 0.0157737 0.0266474 
181 1 -3.65999 7.68517 -0.270571 0.0340041 -0.000459259 -0.00479342 
182 1 -4.09946 9.05778 -0.363717 0.0115023 0.0195299 0.00982104 
184 1 -3.997 10.0518 0.809394 -0.0100222 0.0316713 0.00620379 
185 1 -3.13111 8.0369 2.26096 0.0243337 0.00643005 -0.0209303 
190 1 -4.67736 11.3347 0.91827 -0.0231589 -0.0127651 0.0108632 
186 1 -3.66166 9.49326 2.30896 -0.0089585 0.0237556 -0.030361 
216 2 -4.05133 11.5282 18.1307 0.0144712 0.0407732 -0.0184321 
177 2 7.82939 0.572818 34.5034 -0.0274206 -0.119599 -0.00892484 
211 2 -6.60478 12.3449 0.149687 -0.013383 -0.0564464 -0.0228767 
501 2 9.46663 17.6162 -2.15622 0.0484115 0.0328021 -0.0130206 
477 1 11.8007 16.1165 -2.91254 0.0134074 -0.00205008 -0.0207445 
480 1 11.191 20.5929 -3.86894 0.0154265 -0.00562242 -0.0133857 
498 2 9.80952 14.042 -2.10754 0.0507519 0.0379632 -0.0655719 
489 1 9.88147 15.1381 -1.93633 0.00905166 0.0101873 -0.00949171 
486 1 10.4011 16.0816 -2.20612 -0.00510786 -0.00107826 -0.0325628 
490 1 9.4199 19.8592 -2.15936 -0.000234816 0.0166295 -0.00796713 
473 1 11.5313 18.4776 -2.84259 -0.00250724 -0.0154508 0.0262108 
479 1 10.0534 18.5865 -2.41744 0.00295353 -0.0193484 0.00418955 
502 2 8.29651 19.8904 -1.62805 -0.00503689 0.0930865 -0.0110482 
212 2 -5.09159 13.2881 2.42037 0.0544958 0.00248296 -0.0305985 
504 2 9.42839 21.8093 -3.35992 -0.0337904 0.0661658 -0.0358091 
492 1 9.93029 20.8032 -3.12159 0.0174849 0.0206092 -0.0017515 
488 1 11.8403 21.4076 -6.2829 0.0137981 0.0202093 -0.00490496 
491 1 11.5763 21.2711 -5.14597 -0.0230763 0.00188051 -0.0258566 
537 2 11.513 27.2893 6.20533 0.106987 -0.0204227 0.0451806 
215 2 -4.56916 11.9979 4.35584 0.0272561 -0.105382 0.0166145 
200 1 -4.8233 12.1111 2.19419 -0.0111507 0.0297684 0.00799505 
576 2 19.5971 9.06899 -10.4424 -0.0978465 0.0114775 -0.0433019 
564 1 20.0815 10.2513 -10.2736 0.000979077 0.0164103 -0.0162551 
575 2 21.4661 7.94804 -10.4885 -0.0345779 0.038997 -0.0147967 
552 1 21.3855 10.1666 -9.65789 0.000713108 0.00315161 0.0126545 
563 1 21.8192 8.66986 -9.71343 -0.00784575 -0.00342903 0.00729239 
546 1 21.9315 11.3244 -8.99595 0.0203017 0.00865167 0.00671213 
574 2 18.3184 11.282 -10.4515 -0.0624849 -0.0329186 -0.0625796 
544 1 23.2177 11.1451 -9.09732 0.000985329 0.0362199 0.0189321 
363 1 12.1893 -3.02278 1.3806 0.00643117 -0.00288377 -0.000864407 
421 2 21.2258 5.32774 5.47761 -0.058362 -0.00324156 -0.167505 
562 1 19.3973 11.3296 -10.1186 0.0144742 0.01646 0.0201717 
560 1 23.118 8.44948 -9.31039 -0.00759792 -0.00650523 -0.0181198 
572 2 23.7082 7.43952 -9.26295 -0.000904493 -0.0352662 -0.00566664 
550 1 23.966 9.74357 -9.43849 -0.0160737 -0.00213915 0.0092559 
571 2 25.9354 8.8117 -9.77242 0.00187839 -0.0672577 -0.00774768 
559 1 25.2993 9.64247 -9.78552 -0.00461518 -0.00875178 -0.0199441 
556 1 26.1098 10.8977 -9.46199 -0.0124828 0.0106107 -0.0100807 
420 1 15.0761 4.39843 11.8491 -0.0117544 0.0225734 -0.00562155 
568 2 27.1037 10.9222 -9.6454 -0.121951 -0.0257507 0.0924416 
415 1 16.011 7.06741 6.70645 0.00768682 -0.0128229 -0.00305799 
369 1 13.5836 -2.83722 1.28918 0.0113542 -0.0174707 -0.0200041 
389 2 15.7074 -3.74836 0.517988 0.0888139 -0.00764407 0.0290657 
377 1 14.5485 -3.95903 0.852817 -0.00899383 0.0206486 -0.00232381 
386 2 14.1858 -5.42439 -0.848659 0.10398 -0.0403005 -0.0425589 
374 1 13.9251 -4.70169 -0.0329591 0.00587112 -0.0212341 -0.00539881 
378 1 14.0337 -1.42672 1.79809 0.000263345 -0.0162744 0.000963309 
495 2 15.1834 -1.02369 2.14533 -0.0394514 -0.00949081 -0.0203485 
179 2 16.6203 -3.04278 -7.0887 -0.0065866 -0.00325837 -0.0765877 
404 1 18.1461 5.85786 6.26931 -0.00141872 -0.010383 0.00994145 
381 1 13.1639 -0.426278 1.43509 0.0228568 0.0191746 -0.0146338 
393 2 13.4137 0.525831 1.82041 0.054807 0.0312635 0.0541196 
424 2 17.2867 7.61866 5.00355 0.113458 -0.0308576 -0.0226501 
423 2 19.1402 6.23645 4.43037 -0.00191259 0.0718022 0.0505407 
411 1 19.4126 5.55232 5.29462 -0.0231076 -0.0259528 -0.023428 
419 1 14.6974 6.56459 10.2198 -0.0130684 -0.0190791 0.026781 
408 1 15.702 5.42575 10.8823 0.00422971 0.00937592 0.00418442 
431 2 13.8243 6.58493 10.7625 0.0207918 -0.129514 -0.0597623 
402 1 16.629 4.90139 9.78 0.0164402 0.0224558 -0.0178017 
400 1 16.8858 5.44366 8.49547 0.00249942 0.012304 0.0136045 
426 2 20.703 2.01405 11.2727 -0.0707096 0.0616973 0.0518502 
367 1 12.5161 -5.19758 0.382977 -0.00343643 -0.00139998 0.00969413 
401 1 17.8691 3.92614 10.1312 -0.00781097 -0.0222874 0.00623337 
407 1 17.6916 3.51992 11.6162 -0.00527382 0.00408124 0.00958485 
414 1 19.7876 2.08055 10.8132 -0.0117037 -0.0270068 -0.0120427 
405 1 20.16 2.81782 9.66109 0.0140781 -0.00268074 -0.0116553 
399 1 18.8352 3.60649 9.27072 -0.0362315 0.00155636 0.000949445 
425 2 21.995 1.68158 9.05594 0.0122169 -0.0866995 -0.0233977 
413 1 21.1301 2.45563 8.69623 -0.00367163 0.00236949 0.0132063 
410 1 21.3563 3.24135 7.68381 0.00813977 -0.037173 -0.0124766 
422 2 22.1507 3.13616 6.846 0.0206352 -0.0398342 0.0661261 
398 1 17.912 5.12269 7.54684 0.014821 -0.0355877 -0.00603131 
397 1 19.0633 4.48147 8.1962 -0.00452552 -0.0181699 -0.0106499 
403 1 20.2392 4.09794 7.29415 -0.011946 -0.00492578 0.0248052 
409 1 20.535 4.93288 5.94951 0.00142045 0.0191213 0.00589847 
428 2 14.585 8.14223 8.34329 0.00389987 0.0859418 -0.0553762 
416 1 14.9572 7.1726 8.93267 -0.00748768 0.0131536 0.0112923 
406 1 16.0594 6.55868 8.05928 -0.0105844 0.0116261 -0.00232316 
412 1 17.2709 6.86319 5.89288 0.00407647 -0.0195914 0.00586963 
427 2 15.0611 7.96434 6.63482 0.0479828 -0.0377306 -0.0461242 
548 1 25.4577 11.9053 -8.57943 0.00828584 0.00968044 -0.002213 
417 1 18.8001 2.82627 11.8788 -0.00477776 0.0121335 -0.0402982 
429 2 16.9031 3.89997 12.3922 -0.0726205 0.109805 -0.0544272 
347 1 34.0242 -11.5501 14.758 -0.00926398 0.00050159 -0.00694607 
218 1 35.7857 6.60849 27.9461 -0.0276034 -0.0305135 0.000638381 
356 2 32.4497 -9.69224 14.8412 0.110857 -0.056853 -0.0955995 
355 2 31.3263 -8.29024 17.1199 0.0119076 0.0503531 -0.0430547 
334 1 32.868 -10.2791 16.5802 -0.0170805 -0.00313422 0.00837622 
343 1 31.935 -9.21634 17.4867 -0.0469105 -0.00681209 -0.0183845 
344 1 33.2349 -10.3516 15.2234 -0.00155285 -0.0119034 0.0133624 
328 1 33.8156 -10.9278 17.4164 -0.005988 0.0159607 0.00658108 
227 1 34.8376 2.87293 30.1442 0.0106083 0.0272216 -0.0243472 
432 2 15.6495 2.97491 13.4083 0.00056505 -0.0171605 0.0436858 
249 2 35.5096 0.969693 31.0714 -0.0694386 -0.00325914 0.027361 
418 1 14.9222 3.55916 12.7156 -0.0428803 -0.00733205 -0.0148675 
430 2 14.0028 3.07063 12.3914 0.0544936 -0.00684218 -0.0627027 
339 1 33.0454 -9.90498 20.9206 -0.00194265 -0.0115084 -0.00170496 
326 1 33.9876 -10.5287 18.8146 0.00187704 0.03201 -0.00850714 
332 1 33.0433 -10.002 19.3978 -0.0124472 -0.0155182 0.0412718 
325 1 35.0037 -11.2705 19.7848 0.00834754 0.0056436 -0.011042 
352 2 31.3096 -8.49889 19.5524 -0.0845253 -0.0596307 -0.0485432 
351 2 32.5139 -8.99233 21.6545 -0.0362086 0.0381972 -0.146748 
340 1 31.8834 -9.29181 18.8542 0.0356314 0.00866467 -0.00473044 
337 1 34.3099 -9.9004 21.659 0.00429277 -0.0188315 -0.0187351 
331 1 35.4159 -10.7531 21.0246 -0.0111215 -0.0128376 -0.00441394 
349 2 34.3259 -9.47995 22.7506 -0.0775217 -0.0198632 -0.0219103 
71 2 23.7964 -5.53923 18.9007 -0.0249752 -0.0391116 -0.0330231 
238 1 33.5407 2.26358 29.8366 -0.0218898 -0.0251163 0.0138579 
250 2 33.4166 1.21572 30.1707 0.033425 -0.0465528 0.0655915 
236 1 32.606 5.37637 26.2089 -0.0218782 0.0167416 0.0156919 
239 1 32.377 4.7691 27.3324 0.00571767 0.00675796 -0.0176263 
248 2 31.8613 6.0237 25.6937 0.05659 0.0190473 -0.0154221 
251 2 31.1746 4.7646 27.2239 -0.00564118 0.0442519 -0.057207 
228 1 33.2177 4.15481 28.2383 -0.0122285 -0.0053197 -0.0145889 
222 1 34.487 4.69916 28.3555 -0.00805414 0.0189976 -0.0192172 
252 2 31.745 2.96949 29.129 -0.045425 0.0118688 0.0162455 
240 1 32.7827 3.04444 28.9562 -0.0280263 0.00211632 0.0251584 
221 1 35.3666 4.05723 29.478 0.0125388 0.00731595 0.00175522 
226 1 33.7862 6.16612 26.384 -1.30398e-05 0.023155 -0.0121338 
220 1 34.5401 5.98512 27.7007 0.0150912 0.000605734 -0.0226201 
247 2 33.9995 8.05429 24.9203 0.00200974 0.0500356 0.00651954 
235 1 34.2496 7.45448 25.6645 0.0101028 -0.0235936 -0.0187599 
232 1 35.6212 8.03349 26.0266 0.0168806 0.0193043 0.00147555 
359 2 34.6292 -11.2214 13.8892 0.0155078 -0.150609 0.0461661 
237 1 35.7697 1.95746 30.8328 0.0242802 -0.00878954 -0.00306096 
554 1 23.2439 14.9933 -6.46458 -0.00296011 0.013096 0.0160692 
549 1 21.3241 14.5543 -8.06269 -0.0395165 0.0177765 0.0284758 
541 1 23.3937 13.3715 -8.15038 -0.0204531 0.0109297 0.00361514 
557 1 21.9673 15.3744 -6.95243 0.0122687 -0.00259752 0.0280383 
566 2 23.9168 15.4801 -5.81494 -0.125922 -0.0782186 0.047582 
558 1 20.148 14.7936 -8.82765 0.0119526 -0.0248116 0.0257432 
570 2 19.3484 15.2714 -8.25998 -0.0315675 -0.035482 0.121291 
543 1 22.0666 13.2428 -8.29243 0.0228868 0.00554123 -0.0246992 
569 2 21.8139 16.5357 -6.76378 0.0352008 -0.087553 0.0152738 
573 2 18.3556 13.6603 -8.67987 0.0300439 0.000353044 -0.0690172 
561 1 19.1427 13.7843 -9.24796 0.0063495 0.0273013 0.00850027 
567 2 27.2734 12.9313 -7.69019 0.077607 0.0117637 0.106781 
553 1 25.425 14.1292 -7.2785 0.00818129 -0.000245045 -0.0207423 
555 1 26.0936 13.1681 -7.96064 -0.0285013 7.1542e-05 0.0257254 
565 2 25.9219 14.6952 -6.40571 -0.00457955 0.0357529 0.0281112 
547 1 24.1001 14.2072 -7.29857 0.00779064 0.0240035 0.0073249 
483 1 16.4471 17.5486 -3.0831 -0.00110637 0.0333685 -0.00481423 
481 1 16.1038 16.2309 -3.0552 0.0096034 0.0202168 -0.00506734 
494 2 14.3472 14.7422 -1.93632 0.0274885 -0.0867654 0.0516533 
475 1 14.5059 16.6519 -2.95072 0.0172307 -0.0139726 0.00389627 
469 1 13.8375 17.6868 -3.69756 0.0239505 -0.0105146 -0.0257328 
493 2 16.5526 15.2739 -2.41474 -0.0107678 -0.0872152 -0.052837 
482 1 13.9845 15.2938 -2.77045 0.0156407 0.0251405 -0.0232851 
485 1 12.5791 14.993 -3.33631 -0.0361842 0.00295757 -0.00344312 
551 1 19.9411 12.5613 -9.60398 -0.0208483 0.00257487 0.000694743 
472 1 13.6961 19.8529 -3.26595 0.0173427 0.00885238 -0.00500026 
476 1 16.1618 18.9241 -3.2345 0.00922206 -0.000167565 -0.00783695 
496 2 17.1879 21.0215 -2.66316 0.00986502 0.0534303 -0.0075662 
484 1 16.0917 20.479 -2.82642 -0.0159871 0.0189256 0.0097489 
487 1 15.1434 21.6074 -3.57363 0.0342153 -0.033519 -0.00503586 
499 2 15.6203 22.5897 -3.86287 0.0679289 -0.0257244 -0.0553594 
470 1 14.8252 18.81 -3.6698 -0.00320842 -0.012004 -0.0203868 
478 1 13.7546 21.3574 -3.59829 0.0194557 -0.0132569 0.000779988 
503 2 13.0223 22.1773 -3.88219 0.011049 -0.0356164 -0.0100982 
471 1 12.464 17.4008 -3.25712 -0.0165117 -0.0170435 -0.011414 
545 1 21.3038 12.3823 -9.19135 0.0214163 0.00187891 0.012308 
540 2 12.1098 26.972 6.80669 -0.132359 0.00252087 -0.0137936 
497 2 12.4939 14.0442 -2.81228 -0.0248649 -0.0566089 -0.0166156 
500 2 12.7549 21.402 -6.9181 -0.0186676 -0.0153272 -0.0193001 
474 1 12.1272 19.7504 -3.10385 0.016716 0.0180823 -0.00613825 
542 1 23.9632 12.2548 -8.83545 0.0137755 0.00591677 0.0135849 
167 1 24.6889 17.4659 16.0318 -0.0150102 -0.00708817 0.0126294 
150 1 25.2737 18.3727 18.1771 -0.0211728 -0.0239594 0.00206371 
154 1 23.8059 15.9642 17.6898 -0.00386596 0.0118202 -0.0163181 
176 2 24.9182 16.9829 15.0092 0.0779377 0.0453522 -0.0333336 
164 1 23.8075 16.2445 16.2124 -0.013152 0.00350747 0.00771951 
175 2 24.1943 13.7388 17.4741 0.00380457 0.153242 -0.0589798 
156 1 25.4139 18.5307 16.8801 -0.00305708 0.0243688 -0.010448 
180 2 26.4564 20.1332 15.7005 0.00856382 0.057154 -0.129794 
168 1 26.1325 19.68 16.6335 0.0110733 0.0152432 0.00116139 
166 1 26.2491 20.8054 17.5909 -0.00259486 -0.00219226 0.0174113 
178 2 26.8095 21.5855 17.2256 -0.0385467 -0.0480127 -0.0499286 
346 1 35.2588 33.0353 16.5778 -0.00147188 0.00572929 -0.0102927 
358 2 35.9445 32.2216 16.278 -0.0601391 0.0400515 -0.0368604 
148 1 24.6006 16.9605 18.4724 0.00663178 -0.0062305 -0.00799763 
145 1 25.318 17.7576 20.9647 -0.018684 -0.0101151 0.013227 
146 1 24.4861 17.0878 19.8844 0.000965906 0.00780753 0.0101719 
163 1 24.0745 14.6426 18.0659 0.0124273 0.00223537 0.00949588 
151 1 25.5357 17.193 22.2771 0.0113548 -0.00178211 0.0103591 
157 1 25.5914 15.6919 22.3044 -0.0021947 0.0233907 0.00199003 
152 1 24.8687 15.624 20.121 -0.00444485 0.0149719 0.0117076 
159 1 25.9591 15.2503 21.0947 -0.00250012 -0.0277649 0.0227373 
169 2 26.4327 14.2646 21.071 0.0777578 -0.0404543 -0.0756715 
172 2 24.8834 13.5024 19.7423 0.000205174 0.120959 -0.0130272 
160 1 24.5627 14.4992 19.4534 -0.0219624 -0.00129983 -0.00444568 
171 2 25.5241 15.6085 23.4178 -0.0811149 -0.0457892 -0.0311139 
170 2 25.4103 18.018 24.2813 0.161079 0.0575289 0.0474755 
155 1 26.4936 20.5895 18.9752 0.0114486 0.0105074 0.0103503 
161 1 26.7414 19.2962 22.9965 0.00755978 -0.0272149 0.00228667 
149 1 25.4472 19.3448 19.1792 0.0209984 0.0172028 0.0037554 
165 1 27.1669 20.9356 19.8755 -0.00322696 -0.0164082 -0.00302656 
162 1 27.4767 20.442 21.0856 -0.00236757 0.0322435 0.011908 
174 2 27.9204 20.8052 21.9697 -0.053881 0.0432924 -0.077482 
147 1 25.5044 19.1455 20.6202 0.00136823 -0.00995123 0.00527454 
153 1 26.4057 19.6136 21.6682 -0.00646404 0.000389974 -0.0181003 
158 1 25.7594 18.257 23.3278 -0.0313422 -0.0159288 0.0129615 
173 2 27.2173 19.8444 23.7272 0.0853177 0.00889894 -0.043528 
329 1 35.4011 35.1704 17.9167 -0.0142001 0.0232366 -0.0226491 
335 1 35.5915 33.6116 18.0376 0.00226421 -0.0208736 -0.000537356 
336 1 34.2955 35.2037 15.6725 -0.011556 -0.0323693 0.0254702 
327 1 35.7647 35.7563 19.158 0.00281145 -0.0284294 -0.00668537 
348 1 34.1793 33.6684 15.7277 -0.0215554 -0.024299 -0.0164389 
360 2 33.7932 33.1131 14.8808 0.0185168 0.0915693 0.0201051 
330 1 34.345 35.7266 17.1069 -0.00942944 -0.0310633 0.0177397 
508 1 59.484 -11.2459 -10.7017 -0.00602375 -0.000536477 0.00327102 
28 2 58.0967 9.99051 8.06006 -0.00534975 -0.00174292 0.0666007 
16 1 58.8932 10.415 7.77402 0.00337485 0.00264296 0.0101079 
8 1 58.99 11.7834 8.08558 -0.0180459 0.0199188 0.00730041 
318 2 55.8096 -5.09734 1.12727 0.0536431 0.00933353 -0.0438916 
317 2 53.8621 -5.79872 1.04838 -0.0410332 0.0615249 -0.0496258 
316 2 50.2719 -1.98028 -5.48426 -0.0317119 0.0441487 -0.0504564 
319 2 52.3557 -0.151011 -5.63296 -0.0700165 0.0782639 -0.0507187 
320 2 54.2236 -0.428213 -6.35795 0.0301647 0.055413 0.0461885 
308 1 54.5696 -1.49556 -5.89393 -0.0113482 -0.0068587 -0.00780994 
323 2 56.2802 -2.64227 -6.70784 -0.0247536 -0.088855 0.0972605 
321 2 57.5692 -4.32242 -0.579663 -0.0354719 0.00248141 -0.0875201 
304 1 50.6779 -1.5023 -4.55043 0.00758566 0.0314663 0.00580191 
307 1 52.0363 -1.21967 -5.12116 -0.00343564 -0.003164 0.0393507 
303 1 50.314 -1.75225 -2.05656 -0.00571632 -0.00497977 0.0118057 
296 1 51.2097 -1.81238 -3.19108 -0.0217401 -0.00239506 0.0286146 
315 2 49.2428 -1.51206 -1.93214 0.0750109 0.00218716 -0.0594143 
301 1 50.5758 -2.98857 -1.32481 0.00379051 -0.0222402 0.010639 
313 2 50.1881 -4.11578 -1.52165 0.0409849 -0.0204017 0.0361442 
295 1 51.9237 -3.66603 -0.839031 0.00390378 -0.0180551 0.00993295 
290 1 52.4001 -2.79477 -3.12566 0.0182905 0.00629419 -0.00236525 
302 1 52.0926 -4.89474 -0.0406269 0.00388985 0.00212855 0.0165052 
289 1 52.9352 -3.58806 -1.9023 -0.0182022 0.00840592 0.0055623 
291 1 54.2616 -4.28371 -1.97486 0.00659158 -0.0279085 -0.00197942 
292 1 53.6191 -2.74948 -3.95104 -0.00954662 0.0235972 0.0173554 
298 1 53.6079 -1.71782 -4.91472 -0.00302792 0.00827075 0.000705568 
311 1 55.6971 -2.33162 -5.84184 0.00911665 0.0199155 -0.0133498 
297 1 54.5068 -4.51748 -0.414365 -0.00357829 -0.0179223 -0.00402372 
324 2 58.554 -3.06787 -5.40969 0.0373603 -0.00202799 0.00976901 
309 1 56.7527 -3.72421 -0.745728 -0.0329332 0.0159626 -0.0309475 
293 1 55.4045 -3.87778 -2.69311 0.0133933 -0.0105898 -0.0109565 
299 1 56.7102 -3.44731 -2.29639 0.00390167 0.00400273 -0.00488266 
300 1 56.1014 -3.19359 -4.82503 -0.0139945 -0.0172299 0.0148394 
322 2 58.5403 -2.64172 -2.96723 0.0762158 0.102546 -0.0191122 
310 1 57.6932 -3.15663 -3.33823 0.0276066 0.0134445 0.0116624 
294 1 55.0334 -3.42629 -3.92395 -0.0116744 -0.016349 -0.0115818 
312 1 57.6652 -3.40654 -4.91087 0.0205292 -0.00549386 0.00643736 
306 1 55.8574 -4.49809 0.0706186 0.0146108 0.0130228 -0.0129015 
108 2 52.4957 -1.97922 2.12961 0.0686754 -0.0190967 -0.0125879 
305 1 53.561 -5.30196 0.0551696 0.00103466 0.00106346 0.00417715 
314 2 51.1857 -5.71971 0.0179087 0.092007 -0.0811631 0.0423005 
27 2 56.8163 11.4778 7.41338 -0.0143683 -0.0494387 -0.0451192 
506 1 58.7338 -11.7897 -9.54167 -0.0126118 0.00868799 0.00593501 
350 2 36.5585 -11.546 22.8897 -0.0267293 -0.0611419 0.0266112 
338 1 36.4079 -11.3666 21.7785 -0.0107414 -0.000833499 0.010186 
59 1 48.0765 -1.42412 24.5127 -0.0215833 -0.0108934 -0.00951925 
68 2 46.8731 -1.30806 24.6897 0.0275604 0.0119922 -0.0415929 
60 1 46.6274 2.03904 21.6628 0.0174246 0.00472182 -0.00601304 
70 2 44.8117 3.28535 20.8342 -0.0353319 -0.113006 0.0853467 
58 1 45.6523 3.08794 21.654 -0.00190147 -0.0161134 -0.0186887 
72 2 46.8195 1.61063 20.4809 0.0634892 -0.0708384 0.138297 
48 1 47.4142 1.64115 22.804 -0.00205466 0.0243497 0.023245 
69 2 44.253 4.72442 22.1996 0.0456988 0.0659859 -0.0397725 
47 1 45.6771 3.31342 23.0513 -0.0241172 0.0134147 0.0078399 
57 1 45.0894 4.67838 23.0017 0.00564151 0.0175755 0.0061927 
54 1 45.4596 5.87948 23.8253 -0.00351669 0.0106261 -0.00971741 
56 1 48.8612 -0.739817 24.9177 -0.0133273 -0.0347161 0.00414336 
67 2 49.1948 -0.777408 27.748 0.0265426 -0.0679605 0.0455845 
55 1 48.8104 0.188178 27.2769 -0.00409502 0.00117778 0.00327938 
230 1 38.5716 5.92542 30.3941 0.0100719 0.00971704 0.017854 
217 1 36.6537 6.1322 29.0052 0.0125094 -0.00369171 0.00818235 
42 1 47.4084 1.97225 24.1512 0.0230858 -0.00872025 -0.00134285 
41 1 46.7368 3.23171 24.0217 0.00198495 0.0236821 -0.00716898 
45 1 46.2032 5.37372 24.949 -0.0135808 -0.01208 -0.0144517 
39 1 46.9133 4.11213 25.1914 -0.00384477 0.0206305 0.0194991 
37 1 46.9303 3.58081 26.4073 -0.0446554 -7.83229e-05 0.0159296 
43 1 46.7881 4.47188 27.441 0.0108515 0.0108043 -0.0279067 
62 2 46.3458 6.37243 28.0434 -0.0659315 0.012527 0.0370148 
50 1 46.6857 5.8169 27.3156 0.00554676 0.00335473 -0.0298028 
40 1 48.1512 1.84136 25.5011 0.0218099 -0.034931 -0.0125414 
38 1 47.4792 2.16372 26.7082 0.0133759 -0.00404617 -0.00454773 
49 1 46.3019 3.91432 28.796 -0.0211857 0.00160064 3.46573e-05 
61 2 45.6355 4.08419 29.5164 0.0487558 -0.0272368 0.0163845 
64 2 48.2979 -0.312657 28.968 0.0487614 -0.0337072 -0.0414955 
46 1 48.8466 0.587874 25.6623 0.00750162 0.0180665 0.0211417 
52 1 47.9383 0.598728 28.3586 -0.0233615 -0.00951261 0.022278 
44 1 47.0527 1.61696 27.8932 0.00765249 -0.0336579 -0.00317165 
51 1 46.7408 2.56286 29.1381 -0.0244222 0.0168725 0.0266591 
63 2 46.2673 2.43589 30.1519 0.0253841 0.110385 -0.00467871 
231 1 37.8887 8.0298 27.2427 0.00539213 -0.00786271 0.0178684 
229 1 38.6302 7.59963 28.4169 0.00364206 0.006297 -0.0145903 
223 1 37.8174 6.84604 29.4687 0.0065159 0.00108096 0.0175762 
241 2 39.5489 6.82857 28.6227 -0.0708482 -0.0556578 0.0538975 
243 2 38.5207 8.66813 26.6472 -0.0154159 -0.00180943 -0.000925205 
224 1 36.3744 7.45689 27.0059 -0.000107427 -0.00136761 -0.00457139 
53 1 46.4993 6.30519 26.0265 -0.012146 0.00094536 -0.00850067 
66 2 45.5061 6.91041 23.1113 -0.0521422 -0.0825736 0.00268813 
65 2 45.9104 7.2534 25.9965 -0.0238702 0.0255341 0.045275 
245 2 38.5074 5.2821 32.5112 -0.0273936 0.0826699 -0.0667099 
225 1 36.9342 4.47951 31.1464 -0.000748333 -0.020611 -0.0226787 
242 2 39.5464 6.35477 30.7343 -0.00965435 0.116571 -0.0444234 
234 1 36.6218 2.91317 31.49 0.0171593 -0.0234874 0.0346714 
510 1 59.2263 -11.4005 35.8444 -0.0186891 0.026741 -0.00949671 
233 1 38.1053 5.22195 31.4414 -0.0193781 -0.000130794 -0.00262588 
219 1 36.5431 4.74866 29.7848 0.020948 -0.0246526 -0.0036316 
244 2 36.4891 8.78139 25.6763 -0.0538261 0.0642899 -0.124351 
246 2 36.0963 2.93501 32.3836 0.0825924 -0.0818964 0.079034 
531 2 59.7729 34.9296 -6.11243 0.0101225 -0.0654122 -0.0778909 
519 1 59.4553 34.7583 -7.13611 0.0115615 -0.0136103 0.0242683 
517 1 58.5999 33.7389 -7.69702 -0.00976831 0.0063367 -0.00768067 
512 1 59.4009 35.6682 -8.34353 -0.00702722 -0.0133866 0.00572005 
530 2 56.6461 32.1046 -8.69538 0.0262608 0.112629 0.0172541 
529 2 58.5082 32.8458 -7.15432 0.045922 -0.020931 -0.00497648 
2 1 59.9986 12.6666 8.21136 0.0132429 -0.0193593 0.00806323 
505 1 58.3735 34.8172 -10.0535 0.0210448 0.0164581 0.00567566 
511 1 58.0555 33.6583 -9.07302 -0.000115532 0.00520312 0.0168734 
518 1 57.2186 32.3825 -9.35981 0.0303535 0.0134013 0.0108741 
507 1 57.8912 34.8574 -11.3914 0.0166668 0.00576065 -0.021424 
521 1 56.886 32.6525 -10.8114 0.00103054 0.0249651 0.0266117 
26 2 57.6251 14.0606 10.798 -0.0666408 0.0175654 -0.0525898 
14 1 58.3681 14.4082 10.2399 0.0138332 -0.0145903 0.010899 
17 1 59.5059 14.4881 11.0561 0.00925247 0.000545781 -0.0224923 
13 1 57.0662 13.5946 7.87047 -0.00745346 -0.00840967 0.0246907 
7 1 58.1522 14.1835 8.76521 -0.0456524 0.0158227 0.00496415 
1 1 59.4492 13.9415 8.33683 -0.00494333 0.00549337 0.00196803 
513 1 56.9244 33.9049 -11.7089 -0.00199038 -0.00200586 -0.00737471 
25 2 55.9615 13.3149 7.76964 0.0300299 -0.0487793 -0.0284821 
15 1 57.4958 12.2269 8.05358 -0.00719348 0.00834395 0.0038733 
533 2 56.3151 31.9553 -11.3851 -0.0201212 -0.0222685 -0.037911 
353 2 37.5065 35.0901 22.3153 0.0092578 -0.0624396 -0.0523748 
509 1 58.4583 35.5695 35.3047 -0.00739789 -0.00445045 0.00573265 
515 1 58.6135 35.0412 33.8949 -0.0161217 -0.00329788 0.00552315 
522 1 56.8175 34.1275 34.9441 0.00131481 0.000668372 0.00732571 
354 2 37.6944 32.818 20.6838 0.0204095 -0.0233747 0.0205141 
342 1 37.1029 33.638 20.0316 0.00126901 -0.00897718 0.0167373 
333 1 36.7304 34.9134 20.0856 0.0233605 -0.000722442 -0.00316569 
534 2 56.883 34.2141 32.7735 0.00273449 0.0244012 -0.0125035 
525 1 57.2561 34.3526 33.7506 -0.00269348 0.000940111 0.0159237 
107 2 59.3421 33.4974 22.2277 -0.00274174 -0.0123369 0.0411957 
357 2 36.2641 31.7531 18.5233 0.0198293 0.0950101 -0.0753223 
526 1 59.9035 35.5453 33.1682 -0.0143785 -0.0325034 -0.0183641 
345 1 36.4645 32.8537 18.9251 0.0080777 0.0206711 -0.0255792 
341 1 36.7161 35.3155 21.4013 -0.0294901 0.00629793 -0.002345 
29 2 59.8588 14.3908 12.2538 0.016656 -0.0241649 0.0679209 
106 2 59.969 30.929 23.47 0.0551956 -0.0324183 -0.0707306 
442 1 80.7577 11.2296 1.00963 0.015805 0.00497762 -0.0226567 
524 1 60.5323 -9.0578 -11.1595 0.000590857 0.0089686 0.00899415 
532 2 60.4837 -10.9594 -6.95532 0.0306759 -0.0596055 -0.0656749 
270 1 69.1818 -10.9159 -6.74635 -0.000822108 -0.00298225 0.0251013 
285 2 70.3263 -9.19988 -6.20803 0.05204 -0.0311203 -0.0929112 
273 1 69.7083 -9.88944 -5.92017 0.0124745 -0.0182165 0.00964142 
110 1 76.532 11.1407 -6.72366 -0.0183443 -0.00663087 0.00998313 
139 2 74.7119 7.73967 -6.98226 0.0374479 0.0799275 -0.0208411 
118 1 76.1414 9.08914 -7.88129 0.000568068 -0.00759842 -0.0108128 
140 2 76.8679 7.01783 -7.945 0.0064164 -0.0720973 0.0105087 
127 1 74.7073 8.73787 -7.27447 -0.00385481 -0.00614717 -0.0271407 
128 1 76.8441 7.88204 -8.3629 0.00365429 -0.00247589 -0.0020423 
112 1 76.8285 10.113 -7.62943 0.00212257 -0.00913776 0.0199753 
131 1 77.9485 8.15102 -9.25944 -0.0105943 0.00932764 -0.0142115 
114 1 78.2339 10.2497 -8.25326 0.00396489 0.00950291 -0.00360034 
116 1 75.0485 11.2353 -6.34757 0.0267989 0.010801 0.0153647 
143 2 78.0946 7.7273 -10.3174 0.13279 -0.0571912 -0.0517063 
113 1 79.0287 11.4372 -8.27391 0.0229587 0.00450464 -0.00357539 
120 1 78.9385 8.99729 -8.7111 0.0100071 -0.0310214 0.0293274 
142 2 81.8082 10.6026 -9.6308 0.0253608 -0.0255451 -0.0933771 
132 1 80.1753 9.0546 -9.61447 -0.0108708 0.019416 -0.0412093 
130 1 80.7229 10.3239 -9.50611 0.0136147 -0.0124284 -0.00659653 
144 2 80.3908 8.33318 -10.4239 0.0484487 -0.029123 -0.0434945 
119 1 80.3314 11.6078 -8.84569 -0.0118704 -0.0159737 -0.00677172 
263 1 69.1682 -9.88028 -4.48751 -0.0166573 -0.00845153 -0.0172092 
286 2 69.2183 -7.75701 -4.61917 -0.104473 0.0214048 0.00358409 
276 1 69.6105 -8.40004 -2.68034 0.00380217 0.00364062 -0.0116858 
274 1 69.064 -8.56527 -3.98048 -0.00848421 -0.00574126 0.0164843 
257 1 68.6255 -10.945 -3.59567 0.00140712 0.0164634 0.0235653 
256 1 68.1877 -11.8443 -1.39165 0.00123588 0.00571538 0.0093633 
258 1 68.298 -10.6268 -2.30222 0.0123826 -0.0152961 -0.00690293 
287 2 68.2756 -8.13832 -0.0966534 -0.0201869 -0.0548151 -0.079971 
264 1 68.5693 -9.25642 -1.732 -0.0283034 -0.0178668 -0.00650561 
288 2 70.0384 -8.2277 -1.67126 -0.0334597 0.0550048 -0.0146862 
275 1 67.9025 -9.20427 -0.526148 0.0157522 -0.00528003 0.0129121 
272 1 67.223 -10.2077 0.284418 0.00166663 -0.00316853 0.0291533 
262 1 67.4688 -11.5089 0.0961817 0.00964051 0.0122937 0.0119088 
135 2 75.0409 -3.12978 -3.87148 0.0345376 -0.0174572 0.107529 
282 2 75.1045 -3.47933 -3.63307 0.0339801 -0.0940923 -0.101224 
443 1 76.9655 9.03274 -1.17113 -0.000831256 0.0237482 0.0177634 
136 2 73.5013 9.34267 -5.93547 -0.00737633 0.0197049 0.0339935 
124 1 74.404 9.8852 -6.27026 0.0114698 0.0150109 -0.00507778 
461 2 78.5598 8.99606 -6.11158 -0.0138475 -0.0299753 0.0666603 
449 1 78.8887 9.32222 -5.21195 0.0348847 0.00106955 -0.0232941 
462 2 76.9814 7.4607 -3.89193 0.0759606 -0.0733844 -0.0792345 
441 1 78.2247 9.3202 -3.95069 0.0137962 -0.00543373 -0.0053264 
450 1 77.0957 8.56302 -3.67865 0.00179167 -0.0053752 0.00175965 
465 2 75.612 8.34161 -2.26119 0.0801595 -0.047831 0.029044 
453 1 76.354 8.9369 -2.48176 0.0196101 -0.00725227 -0.01118 
437 1 78.1548 9.9869 -1.26088 0.0186754 0.00122846 5.35314e-05 
435 1 78.4151 10.2078 -2.64685 -0.0164856 0.00860095 0.0169402 
458 2 79.6444 11.052 -6.35224 -0.0324372 0.0112699 0.00814875 
446 1 79.5164 10.6719 -5.40819 -0.000897679 -0.0214441 -0.0158284 
433 1 79.7139 10.9897 -2.9385 0.0105417 0.0129017 -0.0129282 
439 1 80.048 11.2332 -4.27103 0.00894799 0.0155692 0.00936026 
523 1 60.9321 -10.16 -8.94693 0.00411766 -0.00410596 -0.0239536 
19 1 59.9963 10.1497 6.79427 -0.0369189 0.00805923 -0.00117088 
105 2 69.8672 -10.6741 10.0241 0.0174667 0.0548728 -0.0299926 
434 1 80.274 11.5617 -1.65467 -0.0109448 0.025844 -0.0142167 
436 1 80.1418 10.881 -0.39674 -0.00244342 -0.00778487 0.0209273 
284 2 66.6025 -9.9287 1.26667 0.0137145 -0.00718216 0.0351014 
10 1 60.9154 11.2345 6.19087 -0.00332328 0.0082955 0.00285057 
31 2 60.3403 9.09947 6.8517 0.0215581 -0.102616 -0.0445776 
466 2 75.9936 7.97279 0.604078 -0.0842337 -0.061055 -0.0515183 
454 1 76.7904 8.55895 0.214314 -0.00399631 0.0173977 0.0166603 