ITEM: TIMESTEP
420000
ITEM: NUMBER OF ATOMS
576
ITEM: BOX BOUNDS pp pp pp
-1.2000000000000000e+01 8.4000000000000000e+01
-1.2000000000000000e+01 3.6000000000000000e+01
-1.2000000000000000e+01 3.6000000000000000e+01
ITEM: ATOMS id type x y z vx vy vz 
385 2 -9.49473 -7.14975 -0.654416 0.0232865 -0.0629875 0.0570086 
367 1 -8.0977 -6.05693 0.482671 0.0327961 -0.0118001 0.00333359 
374 1 -7.30619 -7.40198 0.337322 -0.00803366 0.00404522 -0.00517812 
389 2 -5.53204 -8.44367 1.80007 -0.00398433 0.0514344 0.00344275 
369 1 -6.34817 -6.85235 2.74947 0.0124051 -0.0128812 -0.00942062 
378 1 -5.46493 -7.02607 3.85811 0.00875582 -0.0112048 -0.0114758 
377 1 -6.59675 -7.75893 1.51976 0.0302497 0.0042975 0.0224275 
386 2 -7.74377 -8.1315 -0.319138 0.0574577 0.105144 0.0343754 
373 1 -9.41885 -6.35485 0.0168499 0.0237087 0.0153471 0.00193512 
495 2 -4.72746 -7.86811 3.60411 0.0027986 0.078768 -0.00681844 
365 1 -7.23476 -4.68299 4.11497 -0.0127718 -0.0141341 -0.0145443 
371 1 -6.28561 -5.00813 5.09416 0.00656307 -0.0143689 0.0358687 
381 1 -5.68703 -6.26605 5.08325 -0.000612338 0.00710446 -0.0126165 
363 1 -7.20403 -5.62554 2.83511 0.0111637 0.0178111 0.00448235 
366 1 -8.17494 -3.5754 4.00129 0.0143426 -0.00939341 0.00404583 
361 1 -8.00386 -5.19899 1.78689 -0.00914631 -0.00513249 -0.031623 
364 1 -9.15097 -3.30547 2.84904 0.000133141 0.0189393 -0.00499032 
382 1 -6.91564 -4.44242 6.52256 0.00505994 0.0114438 0.000863185 
362 1 -8.92909 -4.05929 1.67634 0.0378727 -0.00357443 -0.0301659 
370 1 -10.1564 -2.48662 3.01138 0.0217843 0.0316178 -0.00453663 
392 2 -10.9686 -1.10772 4.66672 -0.085972 0.066138 -0.0410089 
372 1 -8.04104 -2.76931 5.13383 0.00636231 -0.0165968 -0.00583375 
383 1 -9.18303 -1.73461 5.17852 0.0167665 -0.0124603 0.00338091 
380 1 -10.1291 -1.88212 4.41185 0.00799025 0.0129918 0.0153958 
368 1 -10.2447 -4.15817 0.927971 0.0110449 -0.00195095 -0.0125574 
375 1 -10.4453 -5.39149 0.153007 -0.0101852 -0.0118776 -0.0323009 
393 2 -5.16274 -6.30757 6.09742 0.0248638 -0.0468626 -0.0064233 
396 2 -8.04014 -2.67469 7.30215 0.0706569 -0.0984991 -0.0939839 
384 1 -7.38765 -3.12229 6.45733 -0.00640604 -0.0112164 -0.0245751 
395 2 -9.05135 -0.900026 6.01214 0.0243302 0.0359059 -0.0357927 
390 2 -6.48246 -5.30325 7.01952 -0.0666072 0.0934663 0.0513239 
520 1 8.87152 11.3218 8.36145 0.00139654 0.00823203 0.00361895 
535 2 9.36229 9.43413 7.96416 0.0617786 0.0285564 -0.0294108 
510 1 11.6956 10.396 11.8105 0.00980325 0.000102084 0.0068285 
514 1 10.3825 9.69391 9.61216 0.0327145 -0.0214848 -0.0141882 
536 2 10.3474 7.74128 9.54835 -0.0566459 0.0128105 -0.0549246 
523 1 9.37037 10.1401 8.70846 -0.00212054 -0.0246839 -0.00309022 
524 1 10.2896 8.40976 10.3329 0.0093053 -0.0137878 0.0169267 
508 1 10.7779 10.6054 10.6263 0.00317613 0.00456756 -0.0095573 
387 2 -11.5037 -5.32916 -0.01144 -0.120868 0.016388 -0.0119508 
527 1 10.6385 8.36453 11.7619 -0.0222565 0.00504833 0.00678451 
506 1 10.1636 11.8796 10.6095 0.00308404 0.00216981 -0.0099484 
376 1 -11.2689 -3.02116 0.988948 0.0274749 0.0109581 -0.0199501 
379 1 -11.2591 -2.28304 2.15714 -0.00842146 -0.00389049 0.000765476 
10 1 11.3437 -1.83679 33.9229 0.0083028 4.91663e-05 0.0158962 
2 1 11.3447 1.01992 33.9829 -0.0306547 -0.00102668 0.00524252 
16 1 9.02543 -0.517131 33.5148 -0.012151 0.0186861 -0.00192724 
28 2 8.05036 -0.512224 32.9761 0.0860756 -0.0155281 -0.116673 
19 1 9.97414 -1.62256 33.2883 -0.0187707 0.00220062 -0.00368316 
31 2 9.53185 -2.61042 33.208 -0.0761564 0.0205046 0.00224517 
13 1 9.528 3.29265 33.3039 -0.00710361 -0.0213635 0.0163528 
27 2 8.26322 1.5453 33.0775 -0.00329112 0.0641652 -0.0150338 
26 2 11.363 5.60017 33.3226 0.0859314 -0.0714962 0.00977267 
8 1 9.82317 0.705417 33.7441 -0.00379682 0.0186578 0.0355552 
15 1 9.2539 1.94263 33.5669 0.0102202 -0.00638559 0.00893628 
25 2 8.6662 4.08122 33.142 -0.0943747 -0.0400413 0.0029029 
7 1 11.0372 3.36575 33.342 0.00848604 -0.0140666 0.0369682 
32 2 11.7795 -3.69154 35.1653 0.0160434 -0.0275437 -0.0368083 
516 1 11.7063 9.08597 12.4523 0.0305657 0.014827 0.0152377 
14 1 11.6648 4.66207 33.5827 -0.0223587 0.00327705 -0.0162419 
1 1 11.9703 2.22248 33.4184 -0.000247823 0.00980833 0.0100695 
4 1 11.8902 -0.312212 33.7565 -0.0083279 -0.00407285 0.011916 
136 2 4.25336 18.0926 -8.14735 0.014089 -0.00262017 -0.0104341 
124 1 5.01849 17.8003 -7.37727 -0.0173828 0.00533787 -0.0136549 
127 1 4.69759 17.3381 -6.05703 0.000171268 0.00817779 0.020819 
139 2 3.63503 17.4112 -6.04371 -0.00779109 0.109255 -0.00536769 
116 1 6.39693 17.8394 -7.49321 0.0149271 0.0243045 0.0198561 
110 1 7.54979 17.9093 -6.60217 -0.00668441 -0.0102196 0.0218532 
123 1 6.66912 18.2897 -9.04346 0.00405381 -0.00715131 0.00237511 
111 1 9.86347 17.6505 -6.22154 0.0158273 -0.0313682 0.0409253 
117 1 11.2695 17.7829 -6.71058 0.00041543 -0.00459543 -0.0114481 
134 2 10.9873 19.0937 -9.79382 0.0231366 0.0651447 -0.0226939 
121 1 7.8906 18.7642 -9.4247 0.0191942 0.0407851 -0.0168168 
115 1 9.11257 18.5332 -8.47548 -0.0204191 -0.0172547 0.00348012 
133 2 7.93235 18.7058 -10.5004 0.113855 0.0924776 -0.0205341 
109 1 8.87297 17.8635 -7.14771 -0.0110424 -0.0152481 -0.00080207 
125 1 11.7868 18.5189 -7.97047 -0.0162392 0.00734692 0.0134148 
122 1 10.6231 18.5737 -8.78769 0.0158497 -0.0145666 0.0159756 
530 2 10.3318 16.3142 11.2657 -0.00963322 -0.030425 -0.0742738 
348 1 -11.7258 31.8987 -6.88019 0.0040231 0.0144741 0.00363695 
360 2 -10.9094 32.0988 -7.42428 0.0273448 -0.054977 0.0768305 
118 1 5.8003 17.1483 -5.10284 -0.0142012 -0.0133697 0.00558184 
140 2 4.01233 16.4017 -3.61266 0.0231326 0.00357737 -0.0633007 
128 1 4.99537 16.6517 -3.93233 0.00337408 0.000367367 -0.0137878 
143 2 5.56365 16.3918 -2.21316 0.0775155 -0.0221305 -0.0257956 
131 1 6.20034 16.4109 -3.05029 0.0132105 -0.0149564 -0.00204598 
112 1 7.23726 17.7023 -5.18777 -0.00661031 0.0128379 0.00185388 
120 1 7.68982 16.2313 -3.23436 0.0243629 0.00122386 -0.0211321 
114 1 8.18567 17.0893 -4.46041 -0.0270793 -0.0126671 0.00169522 
119 1 10.4364 16.3216 -4.4254 0.0142284 -0.00487095 -0.00968447 
113 1 9.40891 16.9674 -5.1058 0.0162342 0.0228025 0.00299161 
144 2 8.36607 14.0825 -2.91647 0.0385781 0.00784956 -0.0502668 
132 1 8.68416 15.1336 -3.33097 0.0183584 0.00977992 -0.0113812 
130 1 10.0504 15.1071 -3.7985 0.0103978 -0.010698 -0.0114791 
142 2 10.7193 14.3391 -3.90961 -0.0629394 0.0214669 -0.0727793 
129 1 11.7726 16.5025 -4.73907 0.0151813 0.000876205 0.0162748 
462 2 -4.94561 21.8541 -0.0713304 -0.0193618 -0.0138735 0.0198801 
465 2 -4.37725 22.4861 -2.20804 -0.0854251 0.0147708 -0.0665245 
450 1 -4.9148 22.9719 -0.588224 0.00940783 0.00858795 -0.00502142 
453 1 -4.57886 23.4609 -1.82068 -0.0135065 -0.00339961 -0.0069557 
355 2 -11.2382 30.0291 -1.41806 0.0566423 -0.0167954 0.0031223 
539 2 11.6888 21.2416 -6.93109 0.0275054 -0.0591878 -0.037418 
466 2 -3.50943 24.0503 -4.38323 -0.0458743 -0.0941674 0.0357857 
454 1 -4.20933 24.7726 -4.0539 0.013082 -0.0201825 -0.00763427 
443 1 -4.74952 24.6758 -2.73808 0.0187328 -0.0271651 0.0202268 
468 2 -4.34349 26.421 -5.7181 0.11868 -0.0330324 -0.01976 
456 1 -4.45298 26.1354 -4.57088 -0.0256213 0.0113748 -0.030837 
444 1 -4.82038 27.3622 -3.95711 0.00835757 0.00260372 -0.011253 
455 1 -4.99047 28.881 -3.91293 0.0137688 -0.0117561 -0.0169317 
437 1 -5.36968 25.7003 -1.88402 0.00197989 -0.0115885 -0.00401866 
438 1 -5.14046 27.0834 -2.48163 0.00285998 0.0130529 -0.0187104 
436 1 -4.89976 28.1571 -1.62242 -0.00212194 0.0149229 -0.014632 
452 1 -4.4888 29.8838 -3.05353 0.00102113 -0.00142001 -0.00509808 
435 1 -5.40319 25.3786 -0.494781 0.00473776 -0.00142764 0.0108032 
442 1 -4.80937 29.5241 -1.62133 -0.00667458 -0.0115324 0.00039056 
507 1 11.9837 12.7729 11.963 0.00506859 0.0223514 -0.00259675 
344 1 -10.8238 30.6666 -3.38967 -0.0118725 0.000563448 -0.00424139 
347 1 -10.4257 31.3067 -4.64984 -0.0235151 -0.0144922 0.0274688 
356 2 -10.0028 30.3722 -2.57586 -0.0334661 -0.0150771 -0.0425868 
336 1 -11.6504 31.707 -5.30259 -0.00575003 -0.0357014 -0.00788452 
359 2 -9.4432 31.2381 -4.35931 0.00564434 -0.00810449 0.0541599 
467 2 -6.11484 29.1338 -4.05658 0.0145981 -0.00110664 -0.00331562 
464 2 -4.52523 29.855 -0.608743 -0.00335642 0.0738585 0.00151322 
512 1 8.96489 12.0001 9.67578 -0.0197094 -0.00209926 0.0183061 
461 2 -6.48308 22.5486 1.75799 0.00428796 0.0125353 -0.0623922 
449 1 -6.11846 23.5504 1.27692 -0.0270476 -0.013886 0.011946 
458 2 -7.06415 25.3238 2.85791 -0.00459942 -0.00567975 -0.0240539 
457 2 -5.68528 26.6913 3.77337 -0.0772792 0.0750809 -0.0340858 
446 1 -6.41119 24.7582 1.96264 0.0243138 -0.0235989 -0.0113825 
441 1 -5.4773 24.046 0.0474562 0.00296719 -0.0342609 0.0130956 
459 2 -4.43556 28.1453 3.12777 0.042658 -0.0811781 0.0191147 
447 1 -4.72269 27.7164 2.12295 0.000421096 0.00565182 0.0224121 
439 1 -6.36746 26.1577 1.47586 -0.015304 -0.00928189 -0.000574224 
433 1 -5.85184 26.5009 0.179888 0.00812233 0.00479877 0.0203719 
434 1 -4.90554 27.484 -0.231972 -0.00472558 0.020969 -0.0040664 
445 1 -5.78374 26.963 2.59873 -0.00797845 0.00880081 -0.0288577 
440 1 -3.90772 27.6456 0.840008 0.001696 0.00533936 -0.00329796 
448 1 -2.60539 27.2391 0.977293 -0.00467664 0.00819381 -0.00537721 
463 2 -1.00461 27.0113 -0.130497 -0.0172987 -0.0167638 -0.0130544 
451 1 -1.20184 26.7794 0.887403 0.0165456 0.00226303 -0.0436766 
460 2 -0.89873 25.837 1.40612 -0.0788005 0.0391706 0.0528011 
505 1 10.6756 12.9077 11.2744 -0.0197215 -0.0125705 -0.00349321 
529 2 8.91819 15.3636 9.63876 0.0137742 0.00491713 0.00881793 
518 1 10.7352 15.1952 11.4832 0.019304 0.0223718 0.0101254 
519 1 8.26178 13.2447 9.4736 0.00481911 0.000251148 -0.00443713 
517 1 8.95737 14.4342 9.94998 0.0139596 -0.00371365 -0.0102735 
511 1 10.1309 14.1912 10.809 0.00151291 0.00951958 0.00672691 
531 2 7.56438 13.4551 8.90403 -0.0384171 0.0140891 -0.0111039 
532 2 8.13736 11.6851 7.7228 0.0734767 -0.155288 0.0451538 
179 2 11.8988 21.9786 -7.24455 -0.0411692 -0.151866 -0.0775459 
126 1 11.8998 16.9669 -6.05422 -0.00239579 -0.00752423 -0.0161265 
245 2 11.2817 24.995 19.0943 -0.00771219 0.105138 0.0200129 
246 2 10.9346 26.6491 17.9206 -0.0569389 0.0494536 -0.00590632 
249 2 10.6855 29.355 17.6561 -0.0703593 0.0417162 -0.0209833 
250 2 10.2363 30.8036 19.4632 -0.00215376 -0.0339994 0.0429173 
237 1 11.468 28.7443 18.1529 -0.0202869 -0.0116398 0.00289488 
238 1 11.4886 30.675 19.359 0.0162797 -0.000150672 0.00681759 
234 1 11.7823 27.3995 18.189 0.00714433 0.00711664 -0.045681 
252 2 11.4398 32.6865 20.0225 -0.035369 -0.00245746 -0.0903585 
485 1 27.4365 12.0079 4.88829 0.01637 0.0180619 0.00841415 
494 2 28.4217 11.4998 4.86391 0.034915 -0.0250136 -0.00704923 
482 1 25.987 11.6451 5.02091 -0.000681194 -0.0124966 -0.00641396 
108 2 25.5729 10.668 4.93878 -0.0410626 -0.00265993 0.0375568 
421 2 14.38 -10.1543 -2.22433 -0.0481294 -0.0791873 -0.130259 
537 2 19.1145 6.6502 7.45262 -0.107986 -0.0152176 -0.00935076 
540 2 18.7098 6.23252 6.89885 0.0225333 -0.112041 -0.0832457 
493 2 23.2757 10.9869 6.00033 0.0236329 -0.0645536 -0.0447795 
538 2 13.0262 9.89717 15.6461 -0.0599568 -0.0396632 -0.0476796 
526 1 12.5264 10.1526 14.6635 0.014578 -0.00172382 0.0180944 
515 1 12.5771 11.6176 14.0262 0.00579642 0.0128599 -0.0279271 
576 2 25.8888 -10.4671 22.7209 0.156706 0.0723623 0.0567895 
561 1 29.4862 -8.78613 23.8618 -0.0324013 0.00467837 -0.00751371 
562 1 27.0157 -9.32813 23.3541 0.0142953 0.0321448 0.00393701 
573 2 29.398 -9.40222 22.9662 0.0804342 0.0870899 0.0353151 
574 2 26.9935 -9.31021 22.3162 -0.065955 -0.0481053 -0.100798 
558 1 30.3409 -8.17927 24.6677 -0.00347329 0.0041595 -0.00211318 
560 1 23.9198 -10.2886 27.1555 -0.00749091 -0.0129241 0.0106155 
572 2 22.8069 -10.121 27.4719 0.0801741 0.0311757 -0.0981158 
575 2 23.7016 -10.7348 24.8726 0.0326289 -0.0517737 -0.0969277 
551 1 28.1155 -9.00403 24.3943 -0.00918891 -0.0127162 0.0136925 
552 1 25.4432 -9.86259 25.2148 -0.0327494 0.00325454 -0.00394912 
549 1 29.6965 -7.41805 25.9331 0.0140803 -0.0119889 0.0113909 
543 1 28.4178 -7.9869 26.7376 0.0177597 0.000942942 0.0407026 
559 1 24.7573 -9.06382 29.229 0.0109395 -0.0110286 0.0232151 
541 1 28.2943 -7.81728 28.0507 -0.0173724 0.00122999 0.0274105 
553 1 29.2885 -7.5959 30.0759 -0.00925204 -0.00682062 -0.0147352 
547 1 29.348 -7.19925 28.6921 0.0214888 -0.00994495 0.00877343 
545 1 27.5354 -8.71513 25.6821 -0.00447882 0.0134182 -0.00399216 
556 1 25.4374 -8.38161 30.1111 -0.00785954 0.0109951 0.00254631 
548 1 26.9354 -8.50081 29.8423 -0.0128053 -0.00454551 0.00937669 
542 1 27.007 -8.40973 28.4147 -0.0328998 0.00896709 -0.00279572 
550 1 25.241 -9.82963 27.9293 0.00606672 -0.00395047 -0.0094774 
544 1 26.3758 -9.30943 27.4472 0.00438416 0.00299554 0.0162674 
546 1 26.692 -9.75512 26 0.0179928 0.0114633 0.0132719 
563 1 24.2285 -10.5402 25.8242 0.00453982 0.0117804 0.00090943 
564 1 25.8966 -10.0359 23.8392 0.02039 0.0151845 0.0032595 
570 2 31.5124 -8.26076 24.1234 0.0845953 0.0235829 -0.0438531 
554 1 30.5885 -6.78755 27.8088 0.000983057 0.0102702 -0.00263579 
557 1 30.5788 -6.83916 26.5352 -0.0057036 0.0151145 -0.0108029 
569 2 31.3127 -6.64993 25.6832 0.0300647 -0.0810706 -0.0714478 
566 2 31.3315 -6.86119 28.2681 0.0639464 -0.0212183 -0.0264291 
565 2 30.1753 -7.22872 30.5654 0.0498593 0.0317216 0.024639 
178 2 33.6317 11.064 24.3171 -0.0503159 -0.0245967 -0.0340185 
29 2 13.4008 5.77109 33.172 0.00146269 -0.0966789 0.136034 
180 2 33.9017 10.0528 26.6448 0.0069678 -0.0607956 0.0585032 
166 1 34.0442 11.4762 25.2434 -0.0213649 0.000572651 -0.0343482 
168 1 33.9842 11.1307 26.6304 -0.00484075 -0.0337963 0.00198431 
571 2 23.7284 -8.74594 29.4415 -0.00563591 0.0416091 -0.036257 
555 1 28.1297 -8.08686 30.6286 0.0201252 -0.0155742 -0.000399454 
568 2 24.6919 -7.97924 31.0104 0.00204523 0.0671111 -0.0398141 
567 2 27.8575 -7.97955 31.7647 -0.0831244 0.0312811 -0.049398 
35 2 14.004 -3.76627 34.6172 0.0628827 -0.05979 0.026158 
6 1 13.2844 -0.00853286 34.2488 -0.00429494 -0.00168181 -0.00400481 
20 1 12.3917 -2.97728 34.6031 0.00328188 -0.00587506 0.0111958 
34 2 17.2488 -0.548738 32.4662 0.00608851 -0.0538667 0.0432999 
23 1 13.5542 -2.74425 34.021 -0.00391478 0.00512483 -0.0124575 
12 1 14.1966 -1.16668 33.9553 -0.00722751 -0.0169953 0.0145714 
36 2 16.0462 -2.2966 33.8019 0.0181943 0.0276606 -0.0301737 
528 1 12.193 9.21658 13.9446 0.00840114 0.0318352 0.0278407 
24 1 15.6656 -1.22836 33.7475 -0.0134998 -0.03273 -0.024529 
33 2 16.7128 1.77147 31.963 -0.0415164 -0.00803888 -0.0141023 
30 2 15.6844 4.45156 33.2262 0.0307209 0.0239675 -0.0665989 
11 1 15.3586 1.02716 33.3021 -0.022105 0.0183853 0.0233148 
17 1 12.9706 4.73794 33.4473 -0.0178935 0.0163079 0.0181686 
18 1 15.3495 3.55215 32.9207 -0.0126784 -0.0150028 0.00677773 
21 1 16.2063 2.25839 32.888 0.0228344 -0.00777419 0.00790122 
22 1 16.244 -0.284987 33.0566 -0.0282401 0.00333313 0.0109263 
9 1 14.0176 3.55807 33.2316 0.0108976 -0.0323401 0.00112845 
509 1 12.4353 11.4692 12.4585 -0.00627261 0.0055575 -0.0019867 
3 1 13.2229 2.29401 33.0507 0.00926399 -0.0245608 -0.0296984 
5 1 13.8472 1.17317 33.5623 -0.0272881 0.0267422 -0.000901452 
138 2 12.7113 16.8092 -6.60075 0.066525 -0.0612297 0.08984 
213 2 18.3994 29.2013 -6.66572 -0.0272876 0.0715863 -0.057124 
214 2 21.1722 30.7818 -6.02563 -0.0294866 0.02671 0.00127239 
473 1 27.7391 14.9342 8.94412 -0.0139738 -0.0214467 0.00277682 
475 1 25.1289 12.5292 5.71695 -0.0326785 -0.0264324 -0.00646421 
198 1 17.117 29.4482 -4.88774 -0.00787542 -0.00963037 -0.030042 
209 2 14.313 29.412 -4.02557 -0.029701 -0.0686707 0.067101 
197 1 15.1495 29.3194 -3.30633 -0.00908382 -0.00601197 -0.0136707 
189 1 16.3813 29.9844 -3.73247 -0.0277435 -0.0301193 0.00851174 
206 2 14.4998 28.3376 -1.54277 0.0631086 -0.0228265 0.00511163 
194 1 14.9492 29.2795 -1.76718 0.00161722 -0.000238832 -0.0205004 
187 1 15.9622 29.9556 -0.734824 -0.0177816 -0.00248748 -0.00484107 
181 1 16.8831 30.6944 -1.4728 0.0301375 -0.01801 -0.015545 
183 1 17.4217 30.3323 -2.81383 0.00493262 0.0102987 0.0263666 
503 2 25.7603 15.9766 10.508 -0.0248293 -0.00438273 -0.0282666 
201 1 18.3604 29.3901 -5.52859 -0.0211849 0.000429752 0.0260892 
202 1 20.4497 31.338 -5.3442 -0.0156286 -0.00851913 0.00570175 
204 1 21.2079 32.1827 -4.27659 -0.0155365 0.0152041 0.0138863 
191 1 19.0577 30.5169 -4.66007 -0.00710546 -0.00489867 0.0214808 
192 1 20.5335 32.3805 -2.96918 -0.0237549 0.00289081 0.0178356 
215 2 21.2853 34.2533 -2.47378 -0.0467682 -0.095259 -0.010428 
185 1 18.6615 30.7309 -3.25812 0.00145122 0.0120304 0.00694079 
186 1 19.3837 31.6243 -2.29298 0.0105026 0.023108 0.00799897 
203 1 20.6791 33.462 -2.12457 0.00496372 0.00203018 0.0261326 
200 1 20.4225 33.7278 -0.791336 0.0050799 0.0332865 -0.0050728 
182 1 18.069 31.2177 -0.521397 -0.00987043 -0.00206345 0.00600719 
184 1 19.4512 31.253 -0.865726 -0.0067757 -0.0163261 -0.0152267 
190 1 19.8673 32.5163 -0.0738251 -0.0154902 0.000143759 0.00347751 
212 2 20.6099 34.6963 -0.308213 0.0660834 -0.0304438 0.0247236 
500 2 28.0186 17.3551 4.80591 -0.0139128 0.142857 0.0312024 
491 1 27.5287 16.5633 5.22177 -0.00201014 0.0211625 -0.0132298 
488 1 26.9451 15.7427 3.90099 0.0134432 -0.0017947 0.00981277 
479 1 26.0401 16.4482 5.75156 0.0203483 -0.00857402 0.00159412 
477 1 27.0444 14.4416 4.53379 0.0176169 0.0111721 -0.00811213 
498 2 28.0468 15.6813 5.54729 -0.052031 -0.0423033 0.108739 
486 1 27.8524 13.1896 4.07493 0.0163015 0.0141378 0.0126605 
501 2 26.3134 16.8432 6.67358 0.00927981 0.0363009 0.00419918 
471 1 26.0754 14.88 5.73789 0.00678034 0.018565 -0.0116913 
492 1 30.295 14.1652 4.96631 0.0039148 0.0243426 0.0100158 
489 1 29.0841 13.4214 4.43865 -0.0111835 0.0234375 0.00916144 
502 2 31.0292 13.9977 4.13334 0.0182094 -0.0646495 0.0280542 
193 1 15.8979 29.5737 0.687571 0.0328345 0.0253386 -0.0335959 
205 2 15.1846 28.8571 1.1028 0.00890066 -0.0244812 -0.0518902 
195 1 16.6029 30.292 1.4665 0.0214778 -0.0104587 0.0193705 
207 2 16.9336 30.2681 2.57199 -0.0886145 0.0554467 -0.00944012 
188 1 17.8186 31.0537 0.900203 0.00344084 0.00254777 0.00773777 
199 1 19.7889 32.4793 1.45072 -0.0371288 -0.0113341 0.0169039 
211 2 20.6382 32.7187 1.96962 -0.0231126 0.0412534 -0.0106164 
196 1 18.8471 31.454 1.80179 0.003683 0.00292221 0.0128697 
208 2 19.2876 30.7693 2.51563 0.0161139 -0.000587169 -0.0807199 
484 1 22.8766 14.3443 9.10434 -0.00911711 0.000368442 0.0059447 
499 2 23.1019 16.2197 9.69146 -0.0101279 0.0386195 0.0616266 
496 2 21.909 14.4699 9.76556 -0.0936133 -0.132322 -0.00889395 
476 1 23.6162 13.6334 8.0271 0.00251449 0.017685 -0.00955804 
487 1 23.7336 15.3251 9.69865 0.0181519 0.0085026 -0.01668 
483 1 23.4858 12.9798 6.95458 0.00300969 -0.0153857 -0.00647607 
141 2 12.2749 15.9444 -4.11947 -0.0645465 -0.0956399 -0.0877952 
137 2 12.8032 18.8499 -8.19023 -0.0461451 -0.0246753 -0.111628 
480 1 29.5141 15.3896 7.23133 0.026525 0.016434 -0.0135765 
497 2 25.2212 16.9743 5.0853 -0.0157391 -0.0545338 0.063028 
490 1 30.5414 14.9824 6.14911 -0.0138152 0.00814391 0.0146512 
474 1 28.3888 15.0969 7.95564 0.0361808 0.0229107 -0.0326471 
470 1 25.2339 13.9281 7.86927 -0.0328025 0.0157686 -0.0296972 
472 1 25.9145 14.7069 8.84496 -0.00103865 -0.0119402 0.0128426 
469 1 25.6491 13.7361 6.50702 -0.0110604 -0.0174391 0.0037849 
478 1 25.2261 15.4111 9.75326 0.0202454 0.00876936 -0.0100741 
481 1 23.6795 12.0617 5.80521 -0.0291907 0.0102689 -0.0120968 
522 1 13.4841 13.8405 13.5882 0.0358715 0.00132467 -0.00785555 
534 2 14.3174 13.861 14.8127 -0.0841541 -0.00672659 0.0217341 
177 2 12.4385 19.5165 21.1591 -0.0192075 0.00732349 0.0708501 
165 1 35.1569 13.6016 24.0779 -0.00574654 0.00727635 0.00340784 
242 2 13.1121 23.6818 19.7141 0.0437357 0.0259993 -0.0128992 
241 2 15.4091 24.5361 19.2498 -0.0916292 0.0406506 0.0795036 
164 1 34.0686 12.731 29.6673 0.0149897 0.0119785 0.0113858 
230 1 13.3325 24.7936 19.8158 0.00215068 -0.0010172 0.0068057 
229 1 15.7954 25.4941 19.7697 -0.00781589 0.0283694 -0.00689072 
223 1 14.4941 25.7303 20.0591 -0.00439384 0.00468499 -0.010145 
233 1 12.1477 25.5042 19.3686 0.011411 0.020204 0.00458834 
218 1 15.6509 27.9722 20.426 0.0103047 0.00404683 0.016937 
220 1 15.0047 29.3106 20.6587 -0.00484646 0.0235698 0.016862 
222 1 13.7007 29.8784 20.269 0.00245725 -0.00595965 -0.00681165 
219 1 13.399 27.6047 19.921 -0.0104447 0.0119419 -0.0128353 
221 1 13.1288 28.9823 19.3964 0.027091 -0.0028046 0.0109399 
176 2 33.7145 12.4635 30.6502 -0.0306864 0.0501621 -0.0419031 
217 1 14.4304 27.0001 20.6477 -0.0146074 -0.00164275 -0.0116003 
226 1 16.146 30.2933 21.0531 0.00686595 -0.00298637 0.00193925 
231 1 17.139 25.9635 20.0323 0.0320461 0.0103253 -0.00921354 
224 1 16.9456 27.291 20.5862 -0.0146598 0.0203112 0.0277491 
243 2 17.9124 25.1079 20.0497 -0.0725085 -0.0696062 0.024099 
244 2 18.2604 27.8288 22.3412 0.0522684 0.0417002 -0.00688315 
232 1 17.4137 28.3518 21.7351 0.000564565 -0.0168403 -0.00577146 
235 1 17.3532 29.6864 21.5938 -0.0244124 -0.0170744 -0.0173962 
236 1 15.6649 31.632 21.4212 -0.0177567 -0.00439108 0.0171503 
228 1 13.4765 31.2634 20.1417 -0.0204976 0.00515619 0.00360414 
251 2 13.732 32.9899 20.9018 -0.0267568 0.0497896 -0.00844145 
239 1 14.4657 32.1777 20.7622 -0.00313424 -0.00687888 -0.00964042 
240 1 12.1458 31.6511 20.139 0.0130659 0.0058262 0.00709993 
513 1 12.5653 14.0658 12.4054 0.0318903 -0.00747277 0.02556 
248 2 16.2734 32.4249 20.9595 0.00872335 -0.00797627 -0.0138206 
247 2 17.9506 30.5364 22.3627 -0.0101759 -0.00684512 0.0807962 
225 1 12.3853 26.882 19.2779 -0.0140288 -0.0302168 0.0171503 
156 1 34.3483 12.134 27.6369 0.010561 -0.0132073 -0.0173832 
154 1 35.4162 13.3675 29.6569 0.0151146 -0.0263951 -0.0118157 
533 2 12.5138 16.5623 11.9905 0.00226663 -0.046157 -0.0504235 
155 1 34.9138 12.7404 25.1147 -0.0213047 -0.0346121 0.000282578 
150 1 35.8557 12.6616 27.3967 0.0167702 0.0024118 0.000738375 
525 1 13.0887 12.819 14.222 0.00411835 0.0185547 0.00493856 
174 2 35.7705 15.2474 22.5704 0.0600058 -0.0374113 0.0327075 
162 1 35.995 14.6662 23.4968 0.0202559 -0.00280404 0.0211037 
167 1 33.4423 12.1638 28.6037 0.00621447 0.0130796 0.0229361 
227 1 12.212 29.6127 18.9425 -0.0104125 0.00679552 -0.0125647 
521 1 12.0269 15.4472 12.0561 0.00196859 0.00618778 0.0073726 
46 1 41.4343 -10.5899 -11.0007 -0.0117358 0.020839 0.00940445 
55 1 40.2064 -10.8551 -9.99056 0.00564093 0.0314615 -0.0280417 
52 1 41.1494 -10.4149 -8.94409 0.00805755 -0.0142348 0.0220427 
64 2 41.5509 -11.2144 -8.27515 -0.0468732 0.145393 -0.0562749 
44 1 41.484 -8.75785 -9.07449 0.0115454 -0.0127689 -0.0156443 
38 1 41.5213 -8.38614 -10.4876 -0.00327774 -0.00751281 0.0251998 
63 2 42.202 -8.63326 -7.25852 0.0304457 -0.0238848 -0.0693658 
51 1 41.5164 -7.86259 -8.03427 0.00419337 -0.0091333 0.0205439 
37 1 41.6582 -7.05188 -10.9056 -0.0132086 -0.0210331 -0.0335948 
49 1 41.4185 -6.39277 -8.47926 -0.00239673 0.0242696 0.00977586 
286 2 47.2862 7.97284 -6.36518 -0.0430691 0.00116362 -0.0348312 
40 1 41.795 -9.25416 -11.4336 -0.000742967 0.00526496 -0.00229252 
270 1 48.5429 11.5919 -8.13589 -0.0260263 -0.0013626 -0.00259758 
43 1 41.3593 -6.0591 -9.89887 0.000807507 0.0182325 0.0113535 
61 2 40.5949 -5.63911 -8.06363 0.0745043 -0.0493732 -0.0696601 
50 1 41.7379 -4.64729 -10.162 -0.00273828 0.00598102 0.00867386 
53 1 41.6481 -4.10481 -11.5593 0.00839365 0.0193764 0.031863 
62 2 41.8827 -4.18921 -9.17611 0.0023061 0.00261767 0.0110184 
255 1 46.7623 11.2018 -9.28282 -0.0102877 0.00274709 0.0224593 
253 1 46.3269 11.5227 -10.6048 -0.000121897 0.0119403 0.0178739 
263 1 47.606 9.18597 -8.13866 -0.00287869 -0.0260362 0.0136252 
274 1 46.7364 8.23948 -7.45001 0.00411874 -0.00987842 0.0153358 
287 2 46.5821 5.18287 -11.0921 0.00588023 -0.0202302 0.0275391 
275 1 46.1742 6.44368 -11.025 0.00690642 0.00338978 0.00315513 
288 2 45.913 6.48677 -7.79412 0.00863406 -0.0687544 -0.0603105 
276 1 45.9773 7.25664 -8.27232 0.0189221 0.000311144 -0.0114004 
264 1 46.1507 7.37901 -9.81163 -0.0085999 -0.0237674 0.0197237 
258 1 46.1568 8.84518 -10.0705 -0.0192328 0.0176665 -0.017009 
257 1 46.6092 9.79435 -9.14304 0.00318299 0.0150834 -0.00392772 
256 1 45.6823 9.29034 -11.4251 0.00933473 -0.00373044 0.0245699 
273 1 48.6417 10.1792 -7.74131 0.0198992 0.0120276 -0.00236576 
285 2 49.6201 9.74972 -6.99398 0.0598695 0.0787296 0.0583346 
67 2 39.36 -11.5796 -10.1768 0.104747 -0.0487417 -0.0011413 
254 1 45.6706 10.6375 -11.7132 0.00814016 -0.00958239 -0.00217853 
317 2 59.5108 -10.3577 10.4503 0.0287384 0.0869327 0.0223488 
59 1 41.8305 -11.6242 -11.9694 0.0144063 0.0014646 -0.00536784 
65 2 41.3977 -3.06005 -11.9491 0.0198715 -0.0715476 -0.021035 
302 1 59.7729 -11.2331 8.41851 -0.0165768 0.0151323 0.00532963 
41 1 42.8969 -7.23757 35.1262 -0.000574889 -0.00979736 -0.0118514 
284 2 44.7474 6.38955 35.0238 -0.026923 -0.019383 0.0266281 
70 2 44.0704 -10.453 33.068 -0.0431157 0.0479195 0.0455166 
60 1 43.564 -9.66828 33.4568 0.00415155 -0.00656187 -0.0304843 
57 1 42.1206 -5.8386 33.1913 0.00910295 0.00180169 0.0155015 
47 1 43.1448 -7.04042 33.64 0.00874995 -0.0163931 -0.0221933 
66 2 42.4566 -5.53754 32.1295 0.0548301 0.0215184 -0.0378195 
58 1 43.7676 -8.31648 33.346 0.00191496 -0.00977137 0.014337 
48 1 42.6512 -9.77455 34.5854 -0.0154728 0.0177547 -0.00306759 
42 1 42.4765 -8.69729 35.4669 -0.00151584 -0.000417517 -0.00341414 
56 1 42.3852 -11.1619 34.9354 0.00848474 -0.0136616 -0.0286823 
45 1 42.4773 -4.93224 35.5912 -0.0148135 -0.001651 0.0131298 
262 1 44.9711 8.26949 35.6516 -0.00791824 0.00294389 -0.0356469 
54 1 41.7071 -4.68745 34.2138 -0.00434775 -0.00310456 0.0205359 
69 2 41.4583 -3.68835 34.0126 0.0474234 -0.00133652 0.00594607 
260 1 45.453 11.0451 34.8451 0.00664805 0.0079952 -0.0256159 
280 2 45.0926 10.3599 33.3122 -0.0258823 0.0657067 -0.0140019 
272 1 45.4588 6.88563 35.758 0.00626915 -0.00919411 0.00307431 
268 1 44.4439 10.2075 34.1522 -0.0157427 -0.00463753 0.00635901 
271 1 44.0485 8.88809 34.7666 -0.00400241 -0.022493 0.00771298 
283 2 43.5836 8.69946 33.8833 -0.0539399 0.000780695 0.00765971 
39 1 42.3069 -6.26169 35.9062 0.00713658 0.0234551 0.00880588 
266 1 47.0909 14.0262 -10.1393 0.0102053 -0.00586768 0.00398709 
261 1 47.3355 12.3772 -8.53356 0.0230749 -0.0401595 0.00909274 
269 1 47.4796 13.813 -8.90123 0.00429002 -0.0134872 0.0031012 
281 2 47.6572 14.8346 -8.62786 0.0092665 0.084257 0.00927054 
278 2 47.4961 14.8909 -10.6621 0.0258526 0.0111987 -0.0422452 
259 1 46.3532 12.8516 -11.1661 0.0107915 -0.0165875 0.00181553 
406 1 59.0886 16.7442 -6.19742 0.00854095 0.0089569 -0.00168478 
409 1 54.7309 18.3995 -6.97382 0.00291047 0.00777655 0.00706424 
411 1 55.2837 18.2306 -5.60551 0.019463 -0.0131067 0.0103647 
398 1 57.3641 18.275 -7.12962 -0.00681114 0.00582047 -0.0146871 
400 1 58.8154 17.8407 -7.28042 -0.012772 0.0290331 0.00271997 
422 2 53.7162 19.1419 -9.18496 0.0403598 0.0474986 0.0386436 
423 2 54.2878 18.5951 -5.19603 -0.0218964 -0.0614183 -0.156015 
401 1 58.695 18.9213 -9.33529 0.0152117 0.0149213 -0.00904373 
426 2 56.2622 21.7338 -10.9941 -0.0139413 0.0330694 -0.00588184 
414 1 56.8774 20.8581 -10.6757 -0.00929141 0.000141382 0.00221993 
425 2 54.6297 19.1238 -11.6038 -0.0157412 0.0109941 0.0079555 
413 1 55.0324 18.8017 -10.7393 0.0206876 -0.00165906 -0.0179413 
405 1 56.3136 19.498 -10.2197 -0.0155083 -0.0068296 0.000471845 
397 1 56.5704 18.4639 -8.21592 -0.010181 0.0095161 0.00197065 
403 1 55.1787 18.3388 -8.37191 -0.0264518 0.00536728 -0.0138645 
410 1 54.271 18.2739 -9.59907 -0.0136992 -0.0112234 0.0252529 
399 1 57.2589 18.6125 -9.59474 -0.0345667 -0.0169509 -0.0119029 
417 1 58.1322 20.7126 -10.6884 -0.00521586 -0.0216637 -0.0119115 
407 1 59.0931 19.815 -10.5264 -0.0137969 -0.017254 -0.00306758 
402 1 59.5061 17.986 -8.57877 0.00706081 0.0153311 -0.000493435 
427 2 58.5881 15.0425 -4.80575 -0.0134141 -0.00865817 -0.0412183 
424 2 57.068 16.8003 -3.67117 0.0412451 0.0119691 0.0610889 
404 1 56.6541 17.5938 -5.86231 -0.0137326 0.00155233 -0.0180521 
412 1 57.4403 17.0172 -4.71014 -0.0227542 -0.00186351 -0.0170088 
415 1 58.2003 15.9632 -5.28401 -0.0138653 -0.00311281 -0.0023455 
107 2 40.8767 24.6769 11.4142 -0.0501394 0.0249084 -0.00384281 
93 1 44.2588 18.8616 11.2217 0.00322551 0.0163255 -0.0333936 
83 1 43.5678 20.1551 11.0553 -0.0272266 0.017066 0.01426 
106 2 41.0416 19.9163 10.9171 -0.0249482 -0.0133627 0.0182334 
94 1 41.9719 20.4947 10.6611 -0.0163939 0.0105102 0.00164399 
96 1 42.0108 21.9725 10.4846 0.0139835 0.0237967 -0.00622391 
84 1 42.2418 23.1535 11.5734 0.00659661 0.00740107 0.000937639 
95 1 41.6862 24.4754 11.824 -0.0218321 -0.0104717 -0.00143361 
314 2 58.8903 35.906 8.87541 -0.0228072 0.0246045 0.0279092 
68 2 41.8635 35.5152 -11.3273 0.0511208 0.0821275 0.0248438 
78 1 43.2759 22.4748 12.4116 -0.0239412 0.000846539 0.00917145 
101 2 46.9542 17.9966 14.3975 0.0443503 0.0988102 -0.0328382 
90 1 45.0445 18.2671 12.2213 0.00976058 0.0105506 -0.00556571 
147 1 36.8683 14.2019 25.7881 0.00646242 0.00204842 -0.0336932 
81 1 45.66 19.4448 13.134 0.00255628 0.015264 0.00471556 
89 1 46.554 19.0364 14.2934 -0.00285716 -0.00426204 0.0142139 
75 1 44.6702 20.542 13.1482 0.00786714 0.00882721 0.00947819 
73 1 45.4621 21.6046 13.754 0.00515632 0.00196539 -0.0168579 
80 1 45.7721 24.0355 14.4072 0.00961616 0.00541211 0.00280052 
74 1 44.9917 22.8685 14.2667 0.00401089 0.0199068 0.00828053 
76 1 43.9293 23.2586 13.4545 -0.0359077 0.0015255 0.0332028 
79 1 46.7163 21.517 14.5813 0.0206043 0.0143499 0.00772459 
99 2 47.7475 24.2592 15.296 0.0164502 0.078227 -0.0178792 
87 1 46.9112 23.7177 14.8715 0.00278031 -0.0136874 -0.0149718 
86 1 47.2521 20.1428 14.7659 -0.0284208 -0.0084916 0.0111448 
97 2 48.1931 22.2036 15.2112 0.015735 0.0595172 0.0306798 
85 1 47.2225 22.5257 14.9343 -0.00282441 -0.0170528 -0.00524822 
104 2 41.6328 25.5884 13.7792 -0.0175213 -0.00973344 0.00463896 
98 2 47.8607 19.6763 15.5963 0.0967647 -0.0773091 -0.00282505 
103 2 43.6484 26.7745 14.0584 0.0234489 0.0135707 0.0497639 
88 1 45.4447 25.4676 14.0834 -0.0331811 -0.012655 -0.011312 
100 2 46.3703 25.8695 13.8766 0.01611 -0.0255355 -0.00646759 
91 1 44.1565 25.8378 14.1618 0.0155093 0.0203057 0.0234177 