ITEM: TIMESTEP
300000
ITEM: NUMBER OF ATOMS
576
ITEM: BOX BOUNDS pp pp pp
-1.2000000000000000e+01 8.4000000000000000e+01
-1.2000000000000000e+01 3.6000000000000000e+01
-1.2000000000000000e+01 3.6000000000000000e+01
ITEM: ATOMS id type x y z vx vy vz 
205 2 -1.56081 -1.80632 8.43039 -0.0834093 -0.00504633 -0.0618601 
207 2 -3.01791 -1.15959 7.36195 0.0692928 0.0504566 -0.0107699 
195 1 -2.8555 -0.417957 8.11904 0.00730731 -0.0114519 -0.0174109 
193 1 -1.77776 -0.87154 8.75459 -0.00466829 0.0121883 -0.023392 
187 1 -1.3893 -0.300422 10.2481 0.0161866 0.00337641 -0.0154267 
206 2 0.169777 -1.93413 10.9739 -0.00274018 0.12581 -0.0746441 
194 1 -0.291225 -0.835469 11.0895 0.00703594 0.0164812 0.0149328 
188 1 -3.58731 0.888658 8.57366 -0.01945 -0.0177568 -0.0123915 
208 2 -5.21927 0.941387 7.87824 -0.0549156 -0.0201072 -0.0236974 
196 1 -4.27704 1.78874 7.46695 -0.0150606 -0.00221595 -0.00521474 
199 1 -4.00549 3.3991 7.50418 -0.00150238 -0.005639 -0.00557164 
182 1 -2.93759 1.49691 9.73237 -0.0213906 0.00436723 -0.00813409 
211 2 -3.74624 4.09267 6.59369 -0.0550283 0.00334323 -0.0153849 
184 1 -3.16246 3.01268 9.86098 0.005228 -0.00396772 -0.0189289 
190 1 -3.70938 3.87716 8.94733 0.0293217 0.00824188 -0.00226193 
200 1 -3.86676 5.31594 9.37684 -0.0273612 -0.00464361 -0.0196925 
212 2 -4.41447 5.69701 8.38349 -0.00852631 -0.0292879 0.0708515 
203 1 -4.01212 5.65295 10.5945 0.00766279 0.0171001 0.00522577 
192 1 -3.29824 4.87123 11.6475 -0.00806629 0.0139621 0.0011911 
186 1 -2.69297 3.46486 11.109 -0.0135132 -0.022324 -0.00498076 
181 1 -2.08238 0.863114 10.6714 -0.00226982 0.020072 -0.00315043 
183 1 -1.66271 1.4032 11.9306 0.0253482 0.00220051 0.0182925 
215 2 -4.35516 6.54093 11.1154 0.0156711 -0.0199611 0.00281778 
71 2 -5.85125 -11.119 11.2922 0.0695463 -0.0978588 -0.0202297 
197 1 0.286764 -0.255719 12.022 -0.0260165 -0.00632621 0.00996365 
282 2 7.93781 12.0312 -11.53 0.0195664 0.04737 0.0386367 
377 1 1.46673 8.49022 23.6356 0.0262471 -0.0213044 -0.0464693 
373 1 -2.14687 6.4887 23.4533 -0.01001 -0.015287 -0.0330142 
189 1 -0.349825 1.03078 12.3384 0.0122764 0.0407004 -0.0095907 
490 1 3.77011 11.533 14.5248 0.0245469 -0.0131723 -0.00611745 
191 1 -1.34366 3.31281 13.3334 -0.0163537 0.00392782 0.0373961 
201 1 -0.156854 2.68982 14.0463 0.0276333 0.00254817 0.00480509 
198 1 0.350592 1.5226 13.4429 0.0321381 -0.00403066 -0.0067326 
213 2 0.104353 3.37918 14.822 0.0377914 0.0243956 -0.00559289 
204 1 -2.59773 5.01285 12.6344 -0.00920117 -0.0125913 0.0131513 
202 1 -1.40106 4.8108 13.3666 -0.00497095 0.0206217 0.000167397 
214 2 -0.934948 5.54908 13.9838 -0.153762 0.0255717 0.0221002 
210 2 1.20683 0.732092 13.7174 -0.0166304 0.00535971 -0.0970923 
395 2 0.606761 4.32458 16.9637 0.0213426 -0.0471527 -0.00598041 
488 1 -1.09379 10.4948 13.0968 0.0168003 -0.00356538 0.00834192 
491 1 -0.000689485 10.9365 13.1256 0.00697073 -0.0152008 -0.0252818 
504 2 2.19782 10.0005 15.0412 0.0128818 -0.0385329 0.0337911 
492 1 2.49158 10.777 14.3416 -0.0216823 0.0162492 -0.0187644 
480 1 1.4953 11.4096 13.6438 -0.0110792 -0.0168457 -0.0163519 
502 2 4.93711 11.3934 14.7225 -0.034564 0.0571836 -0.0511166 
389 2 2.21402 9.00424 24.5176 -0.0168382 0.0263741 -0.00386502 
396 2 2.72608 4.36335 17.6749 -0.0141929 0.111124 -0.042379 
392 2 -1.66239 4.67789 16.7284 0.0768222 0.0362162 -0.00204951 
391 2 -3.51797 5.5459 18.1839 -0.00179168 -0.0676654 -0.0617806 
379 1 -2.89816 5.42403 19.0936 -0.0252547 0.00162554 0.0114555 
370 1 -1.5525 5.38921 18.8506 0.00627958 0.00917393 -0.00841953 
388 2 -4.57734 6.00393 20.1718 0.0285212 -0.119341 -0.105934 
376 1 -3.4123 5.94707 20.3003 0.00202555 0.00329816 0.00357125 
380 1 -1.14948 5.14011 17.473 0.0324875 -0.00874435 -0.0106475 
383 1 0.12309 4.81915 17.723 -0.00784983 -0.00367398 -0.00211397 
364 1 -0.926931 5.89805 20.0354 -0.015386 0.00648909 -0.00445808 
361 1 -0.347954 6.76953 21.9413 0.00142903 -0.0126375 -0.00565981 
362 1 -1.47431 6.71212 21.1877 0.0219478 0.0116895 -0.0154245 
368 1 -2.71319 6.27244 21.3524 -0.00585954 -0.0158754 0.00561368 
369 1 1.85011 8.20432 22.2591 0.0173706 -0.0154134 -0.0126067 
495 2 3.64143 9.52898 21.764 0.0406915 -0.0700378 0.0227777 
372 1 1.04142 5.35214 18.7413 -0.00737737 0.00800243 -0.0152886 
366 1 0.283805 6.1809 19.7449 0.0193233 -0.0255659 -0.0165092 
363 1 0.889858 7.20273 21.5847 0.0229296 0.00938369 -0.0294065 
381 1 3.0311 8.59924 20.0805 -0.0267067 0.0157536 -0.00828805 
393 2 3.25303 9.30984 19.272 0.0120828 -0.00856597 -0.0796865 
394 2 2.80889 6.41459 20.5578 0.0147442 0.0637156 -0.0423179 
384 1 2.40648 5.1464 18.4038 0.0153549 -0.00620981 0.00306308 
390 2 4.30033 6.38226 18.5628 0.0642309 0.00480521 -0.0827921 
382 1 3.25342 6.21046 18.6779 0.0120339 -0.0152355 -0.00511724 
371 1 2.61598 7.14059 19.7004 -0.00519139 -0.00934083 0.0130818 
365 1 1.11769 7.01324 20.3152 0.00558865 -0.00289596 -0.0258094 
378 1 2.84588 8.85045 21.5144 0.0276562 -0.0138836 -0.0188886 
179 2 -1.64724 0.500574 26.9554 0.0687979 0.00397814 -0.00593602 
387 2 -3.8836 4.99043 22.8126 -0.0666535 0.0100551 -0.0464485 
386 2 0.257534 7.08251 25.2371 -0.0624414 -0.00433976 0.0297747 
385 2 -2.52174 6.35161 24.4221 -0.0997858 0.0246246 0.0224432 
374 1 0.32111 7.62399 24.1797 -0.0177694 0.00384413 0.00443457 
367 1 -0.699211 6.92719 23.395 0.0155829 -0.0186186 -0.0453341 
375 1 -3.17263 5.84497 22.6774 0.00758749 0.000415073 -0.0036087 
209 2 0.948668 -0.768071 12.6632 -0.0884013 0.0407296 0.012887 
500 2 -2.32254 10.6484 12.9298 -0.0807232 -0.0855634 0.0414406 
185 1 -1.87455 2.89696 11.9747 0.0215381 -0.0248118 0.00436186 
478 1 0.168037 13.1176 11.4491 -0.00114474 -0.00251783 0.0045964 
135 2 7.99328 11.7832 -11.179 0.0459381 -0.156946 -0.0305452 
487 1 -0.439432 13.7652 10.4312 0.016143 0.00422402 -0.00726668 
496 2 -1.17182 15.7009 9.95695 0.0747666 0.157416 0.0130089 
499 2 -1.06191 13.2021 9.57775 0.0917889 0.0746694 -0.0249292 
484 1 -0.508452 15.2248 10.4882 0.00846151 -0.0139008 -0.0358487 
503 2 0.573321 11.9964 11.6431 -0.051699 0.007625 0.0271897 
476 1 0.0680872 15.8577 11.462 0.0189261 -0.0123399 -0.025174 
483 1 0.0304157 17.4663 11.2369 0.00669014 0.0131014 -0.00624297 
479 1 4.00826 12.9093 14.4665 0.00974218 -0.00231014 -0.0271368 
481 1 0.632449 18.2278 12.3769 0.028318 -0.00407367 -0.0216582 
493 2 0.676312 19.3821 12.5443 -0.0111971 0.042919 0.0270609 
494 2 -0.0930385 17.0507 15.7171 0.0249181 -0.0223751 -0.000512397 
482 1 0.707823 17.0391 14.9048 0.00533866 0.0159577 0.0138667 
475 1 0.913112 16.9702 13.4656 0.00600177 -0.0124356 -0.000524617 
469 1 1.54283 15.772 13.3481 0.00233736 0.00891218 -0.0192734 
470 1 0.89935 15.2673 12.3521 -0.0143856 0.0106803 -0.0113045 
472 1 1.16892 13.8152 12.2923 -0.00204706 0.00764876 -0.0264444 
497 2 1.78039 16.9395 16.9079 0.085306 0.0115332 -0.00583878 
485 1 1.81491 16.6951 15.8457 0.0123381 0.0204402 0.00405087 
501 2 4.9576 13.2842 14.0572 -0.112449 -0.0433778 0.0238459 
474 1 1.60879 12.9701 13.3593 -0.0021912 0.00751455 -0.0101772 
471 1 2.65692 15.1107 14.1928 -0.00939879 0.00569676 0.017387 
477 1 2.83389 15.8834 15.2486 0.0157957 -0.00945857 -0.0337525 
473 1 2.74819 13.6091 13.9786 0.0116293 0.0279043 0.005654 
486 1 4.14884 16.4181 16.1953 0.0352659 0.0163491 0.0231164 
489 1 4.9938 16.7292 16.7071 -0.0169168 -0.0165348 0.00342389 
498 2 5.9942 16.5182 16.2323 0.0522883 0.0133725 -0.0408464 
398 1 25.7254 11.7291 11.0077 0.00158698 0.0205384 -0.00347837 
404 1 26.7274 11.1411 11.7937 -0.013331 -0.0154247 -0.0113507 
412 1 28.1085 11.4321 11.4153 -0.0263091 -0.00608089 0.0191581 
233 1 34.7823 10.3414 31.9147 0.00166749 0.0106178 0.0144913 
174 2 27.6801 12.5579 15.1365 0.0113714 0.132295 0.0192444 
180 2 31.7587 12.02 19.335 -0.0821416 -0.0182466 0.039252 
409 1 25.1595 10.1046 13.4574 0.000547645 -0.00549655 -0.0112395 
403 1 24.567 11.4709 13.182 -0.0238712 0.0143676 -0.00169068 
421 2 25.2271 9.49513 14.5033 0.00953545 0.00127182 -0.0407816 
411 1 26.3407 10.0235 12.702 0.0135465 -0.0171981 0.0144287 
228 1 35.9136 4.35354 30.9513 -0.0125813 -0.0168581 0.0243567 
178 2 29.985 11.1094 17.5582 0.0380896 -0.118562 0.0826717 
571 2 21.9228 -0.456046 26.5539 0.0330158 0.0839737 0.0614208 
550 1 23.5443 0.653999 26.813 0.0378219 0.0146848 0.0399809 
559 1 23.097 -0.708427 26.9363 -0.0275931 0.0154124 0.00704802 
568 2 23.4701 -2.90116 26.8426 -0.0409407 -0.0780525 -0.0216648 
556 1 23.8157 -1.92533 27.1887 0.0124294 0.0120798 -0.00325786 
554 1 29.3987 -0.706235 28.3294 -0.0160466 -0.000836537 0.00459418 
541 1 27.1326 -0.0549696 27.7845 0.0119086 0.0189651 -0.0140569 
547 1 28.1233 -1.21123 27.8824 0.0140605 -0.00948994 0.0203044 
553 1 27.4057 -2.45588 28.1502 -0.0250547 0.00705507 -0.031439 
542 1 25.7812 -0.314138 27.4158 -0.000354128 -0.00170335 -0.00522327 
555 1 25.9492 -2.92884 28.1479 0.00191206 0.0200677 0.0268803 
548 1 25.2531 -1.77048 27.4943 0.0164913 0.0100145 -0.0045361 
567 2 25.545 -3.43507 28.8813 -0.00941748 0.0139134 -0.106289 
565 2 27.8677 -3.42414 28.1021 -0.00635311 -0.0130276 -0.0445924 
566 2 30.1209 -1.55143 28.5914 0.0625405 0.061408 0.0755465 
572 2 22.1392 1.53398 25.3241 -0.0689603 0.0124893 -0.0441293 
575 2 22.0135 3.48261 26.4468 -0.00397893 0.0388179 0.0101582 
563 1 22.8017 2.74075 26.9866 -0.0221092 -0.00398997 0.00836175 
560 1 22.5325 1.66575 26.1576 0.021738 0.0318682 0.0299491 
576 2 24.2921 5.65346 27.1186 -0.0161137 -0.0155462 -0.0104426 
544 1 25.0474 0.823299 27.3751 -0.00512396 0.00787182 -0.00658607 
552 1 24.0796 3.18592 27.5665 -0.000133764 0.00634189 0.0138995 
546 1 25.0924 2.09842 27.8125 -0.0133048 0.0143354 0.00846574 
564 1 24.4273 4.59823 27.8696 -0.02799 0.0180338 0.00988788 
574 2 25.6422 5.56074 29.4508 0.11006 0.0573247 -0.0352091 
562 1 25.5177 4.641 28.8523 0.00435694 -0.0015223 0.015771 
545 1 26.5148 2.32785 27.6673 0.0134701 -0.00911864 -0.00758232 
543 1 27.4536 1.26079 27.6839 -0.0162511 0.00538763 -0.00402279 
549 1 28.673 1.63884 28.2903 0.00593616 0.000276066 0.0148029 
551 1 26.5055 3.53369 28.5867 -0.0109719 -0.00676361 0.0109728 
557 1 29.4525 0.71271 28.8828 -0.0062577 0.00676556 -0.00833477 
561 1 27.8124 3.79702 29.5718 0.00326312 -0.028193 -0.00316998 
573 2 28.1797 4.44847 30.278 -0.0177715 -0.000358537 0.0196236 
558 1 28.7309 2.82131 29.3333 -0.00638589 0.00445715 -0.00274263 
570 2 29.7132 3.24062 29.4741 -0.0211119 0.00560467 0.0453195 
239 1 34.9582 3.22159 30.9555 -0.00324057 -0.0231836 0.0197197 
236 1 33.714 3.1595 30.2893 -0.0328711 0.0204491 0.00962527 
235 1 31.8982 4.17069 29.6561 0.0164369 -0.00158522 -0.0100214 
247 2 31.73 3.23165 30.0005 -0.0136906 -0.00672133 0.0666786 
248 2 33.186 2.25053 29.8385 -0.0112239 0.0100592 0.0198931 
569 2 30.3286 1.36837 29.1237 0.0368388 -0.0332288 -0.00418894 
226 1 33.2933 4.49084 29.6314 -0.000277846 0.000759072 -0.0140418 
243 2 30.5868 8.5735 28.9746 0.0162274 -0.00177756 -0.0241068 
241 2 31.0196 9.63657 31.234 -0.0155097 -0.0214443 0.0485467 
229 1 31.6053 8.91977 30.758 -0.0110633 -0.0140206 0.00123612 
221 1 35.6651 6.76102 31.0072 -0.00432474 -0.00604102 0.00650423 
232 1 31.0726 5.16081 30.4563 0.0245907 -0.0132585 0.00288175 
244 2 30.2451 5.18116 31.2559 0.0156859 0.0365111 -0.0240212 
222 1 35.1854 5.5417 30.4195 -0.0231164 -0.026311 -0.00304172 
220 1 33.9486 5.76317 29.8745 -0.0189081 0.0140181 -0.0203883 
224 1 31.6427 6.7808 29.8204 -0.00865854 -0.00429201 -0.0167804 
231 1 30.8991 7.99688 29.8629 0.0106628 -0.00212307 -0.0154967 
245 2 35.5239 11.1076 32.5515 0.0209293 0.0233146 -0.0503561 
218 1 32.9418 6.66749 30.1892 0.0127444 -0.00129764 0.0242507 
219 1 34.9957 7.83726 31.2482 -0.0231764 -0.0156181 -0.0241063 
217 1 33.7463 7.75986 30.8865 0.0179584 0.0156345 0.00146514 
242 2 32.9554 11.1635 31.5745 -0.062528 -0.0493079 -0.00574677 
223 1 32.9059 8.89011 30.9154 0.00853867 0.00345261 0.0215914 
225 1 35.3025 9.04325 32.1806 0.0191868 0.0197401 0.00209482 
230 1 33.5557 10.2959 31.2949 0.0102315 0.0232889 0.00388722 
251 2 35.3296 2.31974 31.36 -0.0014658 -0.0563112 0.0214407 
424 2 28.963 10.9124 11.9235 0.0662174 0.00799507 -0.00852367 
423 2 27.3463 9.83357 13.369 -0.0114904 0.0938714 0.012302 
410 1 23.3773 12.0029 14.0264 -0.0384893 0.0145497 0.0138078 
422 2 23.4082 11.5149 15.0129 -0.038359 -0.0309177 -0.0718871 
407 1 23.0256 13.4832 8.99604 0.00922021 -0.0228813 -0.0138336 
429 2 23.2627 13.8539 8.02556 -0.0395357 -0.0546773 0.0661313 
417 1 21.7346 13.3599 9.49625 0.0166283 0.0275315 -0.0105582 
426 2 20.9593 13.6182 8.84882 -0.00850486 -0.0214608 0.0327235 
414 1 21.8199 13.4417 10.9751 -0.00561769 0.0185567 -0.00714849 
399 1 23.7488 12.7395 11.2377 0.0210775 -0.0147061 0.00680204 
177 2 20.6644 19.6684 9.80599 -0.132168 -0.0461384 -0.0136518 
418 1 26.1279 16.9201 7.87977 -0.00978513 0.00206568 -0.00427691 
401 1 23.9492 13.2456 9.97646 -0.00836422 0.0137187 0.00663649 
402 1 25.2687 13.5438 9.48162 0.0176934 -0.0113286 0.0123948 
432 2 26.0168 16.9183 6.88196 0.0306593 -0.0936085 0.0201193 
431 2 27.2756 14.6255 6.75943 0.0739517 0.0941474 0.0299875 
427 2 29.2302 13.0993 10.7544 0.0196185 -0.0919627 0.13094 
420 1 25.9777 15.6597 8.13262 0.0278442 -0.018066 -0.0036862 
419 1 27.2541 13.8341 7.73467 -0.0250981 -0.00661985 -0.00116848 
408 1 25.9429 14.2128 8.41767 0.00622874 -0.0225518 -0.0197256 
416 1 27.9267 12.6761 8.22872 0.00362324 0.0020855 0.00535352 
400 1 26.1341 12.2358 9.62042 0.0101065 -0.0166967 0.00567603 
406 1 27.4446 12.2368 9.52362 -0.00569972 -0.0111279 -0.00031209 
405 1 22.7693 13.4938 11.8685 0.000651467 0.00595391 -0.00068988 
430 2 26.18 17.9355 8.24763 -0.072027 -0.0276086 0.0122359 
415 1 28.2831 12.6234 10.7935 -0.0232031 0.0335299 0.00758524 
428 2 28.9853 12.6486 7.66522 0.0501905 -0.0145569 0.0162523 
397 1 24.7086 12.1215 11.9394 0.0259496 -0.00142315 0.0236036 
425 2 21.4534 12.8462 13.2954 0.0107986 0.060084 0.0544623 
413 1 22.621 13.106 13.4213 0.000191025 -0.00590235 0.0221159 
173 2 28.2259 15.2219 13.096 0.0313754 0.0712316 0.0278242 
161 1 28.6544 15.5723 13.9299 -0.0047697 0.00770406 -0.00409754 
162 1 28.4435 13.4179 15.2065 -0.00628063 -0.0121735 0.00403163 
164 1 34.341 15.1732 18.6064 -0.0147421 -0.00687367 -0.0316632 
170 2 27.9843 17.6524 14.1794 0.0758998 0.104301 -0.0925487 
151 1 30.0685 17.2973 14.7557 -0.00293824 0.0055521 0.00832284 
158 1 28.6978 16.9916 14.2862 -0.00275625 0.0187182 0.0244933 
145 1 30.9507 16.3736 15.4185 -0.00570817 -0.00017135 -0.0193531 
147 1 30.2322 15.2079 15.8171 0.000871153 -0.00624777 -0.027867 
148 1 32.751 15.9203 17.2193 -0.0138106 -0.0121208 0.0036097 
153 1 29.1039 14.8149 15.078 0.00915451 0.00158086 -0.0186728 
146 1 32.311 16.6534 15.9215 -0.0232051 -0.013886 -0.00561733 
165 1 29.1095 12.7042 16.1604 -0.0107283 0.00879739 -0.00359675 
149 1 30.9505 14.3077 16.5766 0.0131738 -0.0126047 -0.00339109 
152 1 32.404 18.0121 16.2835 -0.0424685 0.0063547 -0.00380762 
163 1 33.8387 17.8045 18.321 -0.0289586 -0.0025744 -0.00357268 
155 1 30.2759 13.2658 16.7628 -0.0137983 0.0240598 -0.00602431 
175 2 34.6687 17.8836 19.0844 -0.0167665 0.000680388 0.166575 
157 1 30.3843 18.7369 14.4908 -0.0140648 0.00984994 0.0172008 
171 2 29.5977 19.3934 13.9696 -0.0138518 -0.0513033 0.0926077 
159 1 31.4205 18.987 15.3546 0.0265509 0.0044125 0.0136782 
172 2 32.12 19.3659 18.2326 -0.039026 -0.0484765 0.0515342 
160 1 32.7084 18.2477 17.5733 0.00785839 -0.0071884 0.0116868 
169 2 31.1712 20.0082 15.7267 0.00250664 -0.00994585 -0.0779555 
154 1 33.9735 16.3514 17.8219 0.00397248 -0.0110578 -0.0165039 
176 2 33.53 13.3624 19.8991 0.00829077 -0.0268202 0.0463589 
167 1 33.5366 13.8563 18.824 -0.00741171 -0.00683069 -0.0025196 
166 1 30.4879 12.0806 17.6289 -0.0103431 -0.0259622 0.0184971 
156 1 32.3956 13.5481 18.0711 0.00488579 -0.022175 -0.0093436 
150 1 32.0812 14.7762 17.2868 -0.0122254 0.00334397 -0.0397089 
168 1 31.4079 12.5188 18.5016 0.00340993 0.00403757 0.0114202 
295 1 54.6085 -5.60499 -7.30575 0.00714113 0.0114889 -0.0156512 
317 2 56.2829 -6.89843 -9.77779 -0.0383852 0.00594673 0.0734975 
302 1 55.4813 -6.58436 -7.8915 0.00138137 0.0160094 -0.0312993 
314 2 55.5975 -7.5196 -7.47857 -0.0431671 -0.0406851 -0.141696 
305 1 55.3801 -6.44501 -9.31539 0.0183469 0.000842227 -0.0325914 
303 1 53.8109 -4.87657 -5.04444 0.00222281 0.0138269 0.0324097 
320 2 48.3756 -1.39269 -8.03026 -0.0249638 0.057987 0.0388791 
319 2 49.4435 -2.68022 -5.57586 0.0709179 0.0883548 -0.0474229 
293 1 52.6087 -3.99304 -10.1041 0.00381277 0.0260276 0.0129582 
291 1 53.5577 -4.49984 -9.30914 0.00560204 -0.024234 0.00942912 
289 1 53.7656 -4.75118 -7.93349 -0.0142107 0.030182 0.00895511 
290 1 52.6302 -4.229 -7.14974 0.00548578 -0.0284302 -0.00866925 
296 1 52.6813 -4.26171 -5.88626 0.00799058 -0.0282872 0.0182986 
292 1 51.6151 -3.36783 -7.99961 -0.0162108 -0.0151145 0.0212345 
294 1 51.7913 -3.02836 -9.43249 0.0147049 0.021002 0.00286248 
307 1 50.3175 -2.8775 -5.98739 0.0131423 -0.00481661 0.0298718 
298 1 50.3687 -2.67135 -7.37266 0.00954561 -0.021482 0.028263 
308 1 49.3677 -1.85444 -7.95615 0.00609241 0.00969579 0.00873596 
311 1 49.7306 -1.80716 -9.35269 0.0193384 0.0198529 0.0144544 
300 1 50.5273 -2.59564 -10.2708 -0.0180558 -0.0136333 -0.0207312 
323 2 49.3686 -1.26393 -10.5249 0.0136994 0.0549098 0.0450342 
299 1 52.6176 -3.81132 -11.6738 -0.00662096 -0.0202648 -0.0152493 
297 1 54.4894 -5.45175 -10.0066 0.0232711 0.0183308 -0.0208152 
306 1 54.6741 -5.18572 -11.3506 -0.00277106 -0.00361141 0.00041976 
313 2 55.1978 -6.65601 -5.32962 0.0821502 0.0294947 0.0290566 
304 1 51.4837 -3.61254 -5.21636 -0.0352172 -0.0277021 -0.00542874 
301 1 54.4667 -5.86316 -5.77598 0.000900788 0.0235179 0.00255934 
316 2 51.6342 -2.67202 -4.52706 -0.111296 0.0519364 -0.00792282 
315 2 54.0793 -4.06602 -4.43197 0.0564745 0.0237248 0.00902092 
312 1 50.7751 -2.34946 -11.5766 -0.00549998 0.0116774 0.0104388 
354 2 40.5384 -4.33034 22.8582 -0.0711384 -0.0507119 0.0218299 
353 2 40.0405 -2.62064 24.4178 0.0495912 -0.0991205 -0.00359231 
537 2 36.5418 -3.05751 23.2464 -0.0533088 0.0199017 -0.0379508 
540 2 37.6974 -3.1376 23.4784 0.0227754 -0.0378815 0.0690373 
342 1 41.299 -3.74865 22.2018 -0.00448172 -0.00635949 0.0143642 
341 1 41.2784 -2.40308 24.1397 -0.0163204 0.00715296 -0.00776021 
358 2 43.8078 -4.00728 18.6509 -0.018712 0.113822 0.00656156 
346 1 44.3024 -4.22775 19.6436 -0.00345559 0.00877097 -0.0106857 
330 1 45.2389 -2.74597 21.7929 0.00937183 -0.00197783 -0.000270294 
335 1 43.4295 -4.05508 20.7258 0.0264139 -0.0308188 -0.00109644 
345 1 41.8913 -4.3892 21.0525 -0.01223 0.00788126 -0.0128682 
329 1 43.7224 -2.70151 21.2054 0.031329 -0.00542369 -0.00945819 
348 1 45.6067 -4.47719 20.1261 -0.0339207 -0.0281083 0.0143331 
360 2 46.1444 -4.41867 19.1973 0.000770982 -0.0539359 0.0557987 
357 2 41.4222 -5.25173 21.1172 -0.0164363 0.00280796 -0.0336019 
327 1 42.959 -1.97273 22.1813 0.00412659 -0.0122058 0.0155735 
336 1 46.0218 -3.81642 21.3424 0.00348394 0.00495128 0.00265739 
333 1 41.737 -2.56481 22.7395 -0.00803749 -0.0372425 0.0252148 
359 2 48.157 -4.61164 20.7174 0.0213494 0.0591968 0.0203976 
347 1 47.5981 -4.18735 21.5766 0.00473373 0.00101938 -0.0209895 
328 1 45.6352 -1.99456 23.1997 -0.00670838 -0.0141316 -0.0179987 
334 1 46.9621 -2.6133 23.596 -0.0352002 0.00574792 -0.00962084 
356 2 48.5243 -4.59386 23.6882 -0.00542069 -0.092463 -0.00857968 
344 1 47.6891 -3.84905 22.9726 -0.00954837 0.000778147 -0.0261638 
38 1 53.9707 4.74595 23.583 0.0199014 -0.00165403 -0.0144085 
66 2 57.6453 0.3397 23.872 -0.0628179 -0.0725877 0.00104037 
61 2 55.6932 4.51104 20.1644 0.0750153 -0.0392048 0.0114792 
49 1 55.3159 4.83192 21.204 -0.00634061 -0.0110063 -0.0165884 
62 2 55.4213 2.10331 20.3549 0.032088 0.0178974 -0.0904968 
39 1 54.4745 2.32115 23.5053 -0.024966 0.000287 0.0110105 
37 1 53.8981 3.43749 22.7873 0.00911333 0.0329617 0.0140868 
43 1 54.6526 3.43585 21.6834 0.0246935 -0.0261325 0.000394596 
50 1 55.1534 2.05559 21.3641 0.0136398 0.0186349 0.0327462 
54 1 56.5183 0.621274 24.1734 -0.0234661 -0.000949277 -0.00562588 
45 1 55.7798 1.57699 23.4409 -0.0240447 -0.0174068 0.00364327 
65 2 56.8106 0.603498 21.7156 0.00689871 -0.0484676 -0.0203118 
53 1 56.0051 1.30721 22.0932 0.000738223 0.00355162 0.00228154 
44 1 54.8098 5.79421 23.0237 0.0115958 0.015722 0.0150758 
51 1 55.5694 5.95853 21.8217 -0.00391279 0.000237154 -0.00373026 
52 1 54.6088 7.12405 23.8747 -0.0252302 0.0179365 0.0170776 
64 2 55.1599 8.06707 23.8223 -0.0318248 -0.0772684 -0.118472 
63 2 56.044 6.98511 21.6609 -0.13278 -0.0372546 0.0156087 
338 1 41.942 -1.64102 25.1984 0.00891247 -0.0190449 0.0200197 
326 1 44.7427 -0.919973 23.4976 0.00714787 -0.00249062 -0.00338542 
340 1 46.801 -0.725481 25.1554 -0.026502 -0.0145126 0.0131622 
325 1 43.439 -1.00558 23.2742 -0.0252083 0.021241 -3.97873e-05 
332 1 45.4438 -0.544139 24.9163 -0.00494624 0.010426 -0.0297757 
331 1 42.6725 -0.548968 24.5221 -0.00607812 0.0170632 -0.00494613 
343 1 47.6434 -1.82506 24.5798 -0.0187105 -0.0133958 0.00972918 
355 2 48.6101 -2.26589 25.0618 0.0272858 0.0039809 -0.100977 
70 2 53.9991 1.05863 28.1907 0.00903364 0.0783693 -0.00762362 
350 2 41.2382 -1.30141 25.9779 -0.0795859 -0.0232605 -0.135247 
309 1 53.7658 -4.39337 35.8331 -0.0144699 -0.00681012 0.0334853 
337 1 43.1108 0.181219 25.6757 -0.00124666 -0.0220305 -0.00192199 
349 2 42.5984 0.272932 26.6986 0.0967019 0.0476461 -0.0755659 
339 1 44.5414 -0.134213 26.0647 -0.00238772 0.0124541 0.00787946 
351 2 44.5648 -0.163061 27.215 -0.0249663 0.0010873 -0.0295597 
352 2 47.3426 -0.403641 26.0662 0.0128435 0.0170719 0.0305379 
72 2 52.7208 4.43845 27.1962 -0.0546701 -0.0400862 -0.023047 
42 1 53.0405 3.19391 25.0411 0.0159455 0.00232601 0.00409038 
40 1 53.0122 4.61445 24.3981 0.00627496 -0.0154762 -0.0234122 
48 1 52.8758 3.60629 26.481 -0.00839237 -0.0276164 -0.00104179 
60 1 53.3837 2.50026 27.1394 0.0227946 0.00393441 -0.000505975 
69 2 56.4716 0.543154 26.4781 -0.0631132 0.0231214 -0.100529 
57 1 55.8146 0.704853 25.5488 -0.0229446 0.00467317 0.0154299 
47 1 54.3328 0.906106 25.6817 -0.00536752 -0.00800894 0.0251564 
41 1 53.6825 2.04992 24.6519 0.0128229 0.0118985 0.0278698 
58 1 53.9729 1.364 27.0916 -0.0208533 0.00438711 -0.0258068 
46 1 52.7144 6.00943 24.7078 -0.0121781 -0.00070294 -0.0181626 
56 1 51.3847 6.20559 24.8619 -0.00255491 0.015106 0.0147611 
68 2 48.9298 6.50196 25.0111 0.0883972 0.00683302 0.0623412 
59 1 50.0602 6.06186 24.8683 -0.0320269 -0.0016245 -0.0317161 
55 1 53.6627 7.3764 24.7486 -0.00488151 -0.0142997 0.00122761 
67 2 53.8711 7.97507 25.6776 0.0431455 -0.0184876 -0.0549915 
246 2 37.6277 9.78727 32.4732 -0.0100927 0.0899916 0.0050007 
322 2 51.5792 -3.1247 34.424 -0.0479044 0.00550419 -0.0307785 
108 2 37.5037 5.31581 12.0776 0.0482146 0.0354297 -0.00273514 
310 1 51.6059 -3.22957 35.5816 -0.00787682 -0.0113723 -0.00990324 
321 2 53.8478 -4.11896 34.6836 0.0339382 -0.0056634 0.031593 
227 1 36.6555 6.29414 32.0332 0.0223871 -0.00516643 -0.0248505 
240 1 37.2536 4.26205 31.1306 0.0160326 0.0248982 -0.00189142 
252 2 37.8699 3.32646 30.6901 0.00610686 0.0422022 0.0128771 
238 1 37.7266 5.4958 31.6271 -0.0173184 -0.00184834 -0.0239258 
250 2 38.6999 5.84164 32.0107 -0.0271921 -0.0140566 -0.0300781 
249 2 37.8693 7.32922 33.2488 -0.00980869 -0.036154 0.0559105 
237 1 36.9199 7.48162 32.8719 -0.0211899 -0.0144209 0.0118195 
234 1 36.7171 8.9393 32.7754 0.0211949 -0.0111458 -0.00692693 
324 2 50 -2.41969 35.7224 0.000579057 -0.0294754 -0.0128322 
318 2 55.4029 -5.49796 36.1526 0.0177537 -0.0129928 0.0268305 
533 2 51.9717 30.5154 -11.1349 -0.052099 0.0173529 -0.0136964 
529 2 54.3947 33.907 34.113 -0.0263199 -0.0284027 -0.0384744 
538 2 51.8995 26.0009 30.0514 0.0338185 -0.0067118 0.0564512 
539 2 53.9865 26.966 28.7531 -0.0668747 0.000842375 0.0476258 
527 1 54.0746 27.3145 29.7539 -0.00838659 0.00427536 0.00623062 
105 2 45.184 16.5932 31.6452 0.00747431 -0.0263079 0.00409549 
526 1 51.0535 26.8867 31.9229 0.00272969 -0.0127077 0.015618 
528 1 52.0497 26.402 31.0338 0.0153723 0.00218706 -0.00983878 
534 2 50.7505 28.0816 35.9148 0.0981225 0.0526915 0.0472722 
516 1 53.1798 27.3157 31.0533 -0.00611792 0.00861755 0.0268489 
515 1 51.0515 27.9147 32.8233 -0.0162678 -0.00145837 0.0247033 
525 1 49.9774 28.3479 33.8164 0.00759787 -0.00416915 -0.00935454 
520 1 56.7191 29.693 32.8256 -0.0203118 0.0165705 0.0164961 
522 1 50.7893 28.6443 35.0532 0.0102043 4.82861e-06 0.0163448 
513 1 51.4588 29.9795 34.7436 0.0116175 0.00373408 0.0204092 
505 1 53.5116 30.4684 33.5103 0.00202625 -0.000911659 0.0256076 
510 1 53.3512 28.2178 32.3108 0.00394435 0.00665106 0.0082433 
509 1 52.2541 28.5142 33.353 0.0138575 0.0142937 0.0157049 
507 1 52.1381 29.956 33.5413 0.00820521 0.0180648 -0.00860087 
506 1 54.5897 29.8548 32.7484 0.00216646 0.0108305 0.00855667 
536 2 55.9235 27.1726 28.8747 0.0118361 -0.0450329 -0.0246224 
524 1 55.4083 27.4689 29.8536 -0.00109878 0.0232118 0.0108566 
514 1 55.443 28.5689 30.8291 -0.00514801 -0.000475999 -0.00403246 
508 1 54.3508 28.9911 31.6601 -0.00509096 0.00435403 -0.039475 
535 2 57.5211 28.6082 30.9925 -0.0330571 -0.0422693 0.00301441 
523 1 56.5916 29.1294 31.4338 0.00850612 -0.0268107 -0.0195429 
518 1 52.3952 31.869 35.1307 0.0117703 0.00834044 -0.0129177 
521 1 51.6925 30.9332 35.8756 0.000143771 0.0153513 -0.0155425 
511 1 53.5784 31.5878 34.3258 0.0104138 -0.000715506 0.0035828 
531 2 56.6592 32.7654 33.536 -0.0738293 -0.00979879 0.023739 
519 1 55.6053 32.1648 33.4497 0.00512093 0.00589714 -0.0340917 
532 2 57.5576 29.4272 33.3392 0.0301217 -0.0290771 -0.0509082 
512 1 55.7899 30.696 33.4128 0.00296802 -0.000532503 -0.0138132 
517 1 54.5226 32.7433 34.0338 0.0195671 -0.00345378 0.00981192 
94 1 59.9991 31.0149 14.04 0.0233085 -0.00389284 0.0248737 
106 2 60.2617 33.4815 13.9341 0.0610643 0.0042511 0.0212281 
530 2 52.6262 32.8242 35.6502 0.00299749 -0.0442279 0.0341719 
93 1 59.9052 28.1316 14.0764 -0.00432751 -0.00348475 0.00104544 
277 2 76.7994 -11.0637 -10.0662 -0.0158165 0.0422064 -0.00871794 
266 1 78.4644 -10.1587 -11.6916 -0.0162715 -0.0127582 -0.0176922 
265 1 76.4456 -10.9971 -11.0782 0.0210516 -0.012435 0.00643638 
267 1 75.1042 -11.1387 -11.3598 0.0144174 0.00689096 0.00473467 
278 2 78.6172 -10.8893 -10.7172 -0.0211584 -0.0910874 0.0154648 
443 1 69.1847 8.70895 7.56943 0.00333154 -0.00302517 -0.0147602 
139 2 73.1003 11.4221 -10.5098 -0.0919234 -0.013268 0.00184757 
437 1 69.6243 7.33914 7.75733 0.0258388 0.000426455 -0.0076414 
467 2 67.0006 6.06909 3.8836 0.0203923 0.0110402 -0.0187678 
464 2 68.0529 3.80883 4.43505 -0.0145842 0.115926 -0.0653239 
455 1 67.9203 5.8723 4.54282 -0.00127626 0.00694881 -0.00871244 
452 1 67.8511 4.60622 5.14244 0.00380799 0.0212791 0.0109743 
468 2 68.0437 8.6267 4.25276 -0.0753565 -0.0447671 -0.00227052 
456 1 68.5427 8.27364 5.13942 0.0339253 0.016226 0.0191969 
466 2 68.6121 10.0652 6.00256 -0.0653368 -0.0297947 -0.0137092 
447 1 69.7384 3.17184 10.5662 0.00684595 0.0128757 -0.00119934 
439 1 69.5808 5.57193 11.1099 3.32083e-05 0.00264491 0.000467932 
460 2 68.5126 1.59773 7.99416 0.0169577 -0.0161463 -0.0887566 
463 2 68.3488 2.38764 5.72321 -0.00420523 0.047799 -0.0568979 
451 1 68.9201 2.99335 6.62891 -0.0078329 0.0196321 -0.00253739 
448 1 69.1645 2.56955 7.97937 0.00489311 -0.00424162 -0.00723607 
442 1 68.534 4.31623 6.51577 0.0300607 -0.0217566 -0.00110359 
436 1 69.1473 5.11887 7.43787 0.0132767 -0.0256681 0.00630296 
434 1 69.4631 4.90607 8.75031 0.0136761 -0.00245494 -0.00488369 
433 1 69.9152 5.74217 9.63537 0.0011451 -0.00372803 -0.00643945 
440 1 69.5253 3.39691 9.1782 0.000407733 -0.0021288 -0.0124708 
459 2 69.4659 2.65438 11.4604 -0.0103462 -0.00671703 -0.0392866 
445 1 70.0035 4.29177 11.5407 0.0189996 0.0156341 -0.0151417 
449 1 69.0228 7.58439 11.4981 0.0244542 -0.00232244 0.000988863 
441 1 69.0466 7.85712 10.2309 -0.0246739 0.000521642 -0.0255165 
462 2 67.4153 9.92666 10.0847 -0.0477149 0.0210337 0.0424343 
438 1 69.2082 6.5235 6.70431 0.0123905 -0.00416271 -0.0102966 
435 1 69.2553 6.93241 9.10746 -0.00261148 0.00812573 -0.0185026 
453 1 69.1361 9.81595 8.42377 -0.0204275 -0.00504945 -0.00243357 
450 1 68.3488 9.26545 9.71218 -0.00821765 -0.0167103 0.00681106 
465 2 68.6324 10.5915 7.95051 -0.03226 -0.0672344 -0.0411467 
444 1 68.7453 6.7056 5.44358 0.0139289 0.0240834 -0.0118825 
454 1 69.1144 9.10242 6.07464 0.00324969 0.00717461 -0.00414682 
124 1 71.4368 11.5768 -11.7168 0.0179035 -0.010256 4.01899e-06 
29 2 68.2964 11.5239 -9.77818 0.0461269 0.0487494 -0.00442099 
279 2 74.1899 -10.9771 -10.7946 -0.0216208 -0.0983369 -0.0410069 
269 1 78.9746 -8.88703 -11.925 -0.0191485 0.00329048 0.00334764 
281 2 79.6367 -8.55747 -11.3115 -0.0159275 -0.076596 0.0404134 
136 2 71.3348 10.6206 -11.382 -0.0525378 0.0431559 0.0138544 
263 1 78.4321 -8.2766 32.0125 -9.81102e-05 0.013474 0.0230409 
457 2 69.772 4.07865 12.5528 -0.0728028 -0.0150806 -0.174271 
458 2 69.2411 5.77692 13.0806 0.0519017 0.00441955 -0.0391621 
259 1 77.2869 -10.5542 35.8158 -0.00716578 0.0236955 -0.00480187 
270 1 80.2583 -8.15214 33.7315 0.0114218 -0.0112501 0.00487865 
284 2 73.6544 -11.2693 30.6498 0.0407936 -0.0720006 0.00827443 
275 1 74.728 -9.74775 30.0594 -0.0060548 0.0104097 0.0388556 
287 2 74.9463 -10.1121 28.9659 -0.100891 -0.00027533 -0.0207791 
276 1 76.922 -8.37903 29.9557 0.0240698 -0.0337641 -0.00155123 
288 2 77.0337 -8.45152 28.7251 0.0125437 -0.0300857 -0.0034283 
283 2 72.2352 -12.0619 33.1442 0.075678 0.0122101 -0.0211777 
272 1 73.9063 -10.3766 31.1181 -0.0416404 0.000602938 0.0395558 
264 1 75.878 -9.08513 30.618 -0.0105774 -0.0013912 -0.00953922 
257 1 77.274 -8.81083 32.8653 -0.0155569 -0.0120753 0.0297963 
253 1 76.6726 -9.60505 34.8842 -0.0034129 0.000916732 -0.00255505 
262 1 73.8739 -10.3953 32.5537 -0.00282734 0.000546889 -0.0126036 
258 1 76.0236 -9.11988 32.1434 -0.00658981 0.0059385 0.00656958 
256 1 75.031 -9.55772 33.0256 -0.00541331 -0.00999827 0.0158558 
271 1 73.1313 -11.4189 33.3678 -0.00768903 -0.0105404 -0.00931124 
254 1 75.3631 -9.91194 34.2945 0.0113023 0.010588 0.0157854 
268 1 73.8982 -11.6855 34.5678 -0.0105336 -0.0226089 0.00120689 