ITEM: TIMESTEP
170000
ITEM: NUMBER OF ATOMS
576
ITEM: BOX BOUNDS pp pp pp
-1.2000000000000000e+01 8.4000000000000000e+01
-1.2000000000000000e+01 3.6000000000000000e+01
-1.2000000000000000e+01 3.6000000000000000e+01
ITEM: ATOMS id type x y z vx vy vz 
48 1 8.10654 -2.26165 -6.76249 -0.00701976 0.00920927 0.0179974 
72 2 7.62753 -1.62503 -8.94835 0.0285052 -0.0250481 -0.0567386 
58 1 9.5112 -1.09186 -7.94999 -0.0114647 -0.0225546 -0.0183188 
60 1 8.44162 -1.76473 -8.14215 0.0399671 0.0118964 -0.0177278 
47 1 10.7588 -1.77785 -7.51152 0.00139932 0.00982581 -0.00868098 
70 2 9.87903 -0.162742 -8.52033 -0.110059 -0.0302303 -0.0623745 
463 2 -10.9989 6.93648 -5.63879 0.0154493 -0.013709 -0.033835 
63 2 11.0646 -6.09304 -1.42442 -0.0541174 -0.0179233 -0.0775184 
68 2 5.62825 -2.69705 -4.51043 -0.0328658 -0.00597323 -0.00170932 
59 1 6.79157 -2.94878 -6.42034 0.0187917 -0.00950083 -0.0197782 
67 2 6.83618 -5.16146 -2.49199 -0.0782271 0.013288 0.077244 
64 2 8.83336 -5.93252 -2.08949 0.011446 -0.0510639 6.47511e-05 
37 1 11.1781 -2.95543 -4.05151 -0.0179434 -0.026512 -0.00314144 
51 1 11.1783 -5.24487 -2.50922 -0.00108999 0.0105052 0.0110236 
38 1 10.0385 -3.70676 -4.12479 -0.00868738 -0.00352337 0.0231408 
44 1 10.139 -4.95527 -3.48632 -0.00536308 -0.00963825 -0.00114618 
52 1 8.8038 -5.11713 -2.84294 0.0201698 -0.0290447 0.00712157 
55 1 7.60736 -4.54105 -3.27697 -0.0171317 -0.00804012 0.0258059 
40 1 9.01396 -3.50777 -4.95896 0.0160049 0.0367302 -0.00622543 
46 1 7.75649 -3.63041 -4.47515 0.000938902 -0.0192184 -0.007713 
42 1 9.26543 -2.62035 -5.96259 -0.00157217 -0.000216219 -0.00985386 
56 1 6.60045 -2.77199 -4.95961 -0.00187776 -0.0237209 0.00464347 
41 1 10.5826 -2.42502 -6.32727 -0.0114806 -0.0142795 0.0158981 
39 1 11.5615 -2.10789 -5.17468 0.00834361 0.0119355 -0.0201014 
282 2 7.39795 8.74937 10.0189 -0.0880416 0.135935 -0.0694923 
464 2 -10.8438 9.02616 -4.92441 0.0116309 0.00472777 -0.0832048 
260 1 8.50426 11.8852 4.01644 0.00332563 0.0168641 0.000736421 
49 1 11.9809 -4.20889 -2.1089 0.0278043 0.0189459 0.0133742 
266 1 10.2529 9.9906 7.77126 0.0173901 -0.016906 0.0102084 
288 2 2.06211 11.028 6.28109 -0.0342322 0.0155835 -0.021491 
264 1 3.95714 11.0514 5.32264 -0.00557133 -0.00070384 0.00654135 
276 1 3.12283 10.7469 6.46755 0.0135753 -0.0331072 -0.00305554 
258 1 5.38751 10.576 5.62788 -0.00366286 0.0187706 0.0110038 
254 1 7.62342 11.6099 5.0511 -0.0231746 0.00776434 0.0047941 
253 1 8.17248 10.8023 6.08693 -0.0128475 0.0034293 0.018545 
256 1 6.3338 11.4082 4.66058 0.00526035 0.032324 -0.00430126 
277 2 11.2432 11.5976 6.14582 0.020165 -0.00031488 -0.0115964 
269 1 9.01201 9.92147 8.58183 0.0164156 -0.00760286 -0.0109247 
274 1 3.52781 9.66003 7.26354 -0.0150391 0.00463479 0.0178832 
257 1 5.93922 9.93388 6.65951 0.0157346 -0.0228879 0.0256392 
286 2 2.86204 9.34683 8.21633 0.05881 0.0162007 0.0778634 
263 1 4.88746 9.34396 7.44407 0.0129201 -0.0146147 0.0140084 
285 2 5.01611 7.30816 8.36138 0.0740298 -0.0268127 -0.0475767 
273 1 5.42609 8.42787 8.56484 -0.012039 0.0127029 -0.0137329 
278 2 11.1116 10.4987 7.15805 -0.00894415 -0.0316298 0.0729416 
261 1 7.67315 9.29715 8.1368 -0.0192323 0.0310405 0.0170501 
281 2 9.18919 10.1113 9.57476 -0.0310744 0.0407711 -0.0773491 
259 1 9.46153 10.733 6.63001 -0.040332 -0.0204431 0.00590837 
255 1 7.34198 10.075 7.04554 0.0180361 -0.0161814 0.0131262 
270 1 6.79203 8.8785 9.15379 -0.0128495 0.00139321 0.00974883 
265 1 10.3333 11.5846 5.72206 0.00460073 -0.0118393 -0.0114168 
275 1 3.71357 11.8171 4.0836 0.0430432 0.00970188 0.0214588 
57 1 11.9542 -1.14931 -8.03445 -0.00543034 0.00412214 -0.0150555 
69 2 11.8803 -0.25541 -8.83414 -0.0452817 0.0053602 0.0677749 
467 2 -11.9091 10.8658 -3.3353 0.0651197 0.0141968 -0.0303242 
267 1 9.82875 11.8715 4.48139 -0.00864464 -0.0336332 -0.0171678 
262 1 5.95331 12.0429 3.59852 0.00555529 -0.0133394 0.0237622 
271 1 6.63917 12.0261 2.23344 -0.00614457 -0.00357436 -0.0109468 
280 2 8.62119 12.6117 1.80146 -0.00153465 0.038571 0.076882 
71 2 -3.80138 14.2596 -8.08103 0.0600339 -0.0535875 0.069394 
283 2 6.0757 12.389 1.20795 0.0253124 0.0402079 -0.00816887 
284 2 4.00061 13.4119 3.0832 -0.0170116 0.082447 -0.0582826 
268 1 7.94627 12.0144 2.59475 -0.0152831 0.00388354 0.0132969 
279 2 10.7558 12.3419 3.88597 -0.0342581 0.00723417 -0.0121498 
287 2 2.70486 12.4504 4.38176 -0.00983664 -0.0387083 -0.0730444 
272 1 4.64716 12.5743 3.48632 -0.00869162 -0.0101013 0.0210632 
141 2 -2.82497 18.1594 24.1098 0.0309748 -0.0319927 0.0465505 
142 2 -3.23125 19.6849 24.3821 0.0101957 -0.0547501 -0.050631 
130 1 -2.53026 20.6985 24.6985 0.00517557 -0.0218597 0.0295122 
144 2 -2.96304 22.4594 24.1366 -0.0529215 0.0583952 -0.0762121 
132 1 -2.22953 21.8923 24.5921 -0.0260269 0.000741115 0.00589149 
143 2 -0.996392 24.183 24.776 0.0769738 0.00356679 0.0379739 
138 2 -1.71122 16.2084 25.1836 -0.0737883 0.0441107 -0.100143 
126 1 -1.23668 17.3088 25.2362 -0.0187109 0.0125665 -0.00633036 
117 1 -0.301309 17.2288 26.306 0.00309639 -0.00398108 -0.00976965 
137 2 0.21863 14.9943 27.0381 -0.0256329 0.0301815 0.0123522 
125 1 0.560811 16.0728 26.7146 -0.000277176 -0.0355949 0.0013182 
122 1 1.92132 16.1544 27.221 -0.0199089 -0.00969101 -0.000760705 
134 2 2.4557 15.3756 27.6843 0.0764063 -0.0689005 0.01516 
133 2 3.82476 16.7939 29.0411 -0.0573211 0.00252785 -0.0221317 
119 1 -1.46362 19.6742 25.0607 0.0284254 -0.00769429 0.00834548 
113 1 -0.601192 19.8275 26.1957 -0.0172665 -0.00582655 0.0117475 
120 1 -0.962954 22.235 25.3063 0.000962284 -0.0116692 0.0379545 
129 1 -1.86868 18.3524 24.5298 0.0103467 -0.0332403 0.0244343 
114 1 -0.186287 21.123 26.1483 -0.0220119 0.00638412 0.00227825 
131 1 -0.393979 23.4372 25.3867 0.00701829 -0.0257426 0.00286327 
118 1 1.39769 22.3789 26.6626 0.00242553 0.00509037 9.93616e-05 
112 1 1.00246 21.1861 26.5634 0.000966037 -0.0123821 0.00957653 
127 1 2.74033 22.6188 27.3771 -0.0205002 -0.00216985 0.0066931 
110 1 1.38054 20.0686 27.562 -0.0119933 0.00234355 0.00379392 
111 1 0.193294 18.5644 26.3769 0.0214295 0.0169819 0.00405434 
124 1 2.81565 21.5808 28.4256 -0.0106796 -0.00990252 0.000959051 
109 1 1.16255 18.6044 27.1963 -0.00543945 -0.0138997 -0.014457 
116 1 2.59794 20.1748 28.1839 0.00829069 0.010796 -0.00313645 
123 1 3.54316 19.1089 28.7085 -0.00675557 0.0110725 0.017877 
115 1 1.9638 17.563 27.575 -0.00310118 -0.0111184 0.0048768 
121 1 3.32719 17.824 28.5467 -0.0209706 -0.00294612 0.0149358 
136 2 3.08733 21.7769 29.6296 -0.0260146 0.026379 -0.00713745 
135 2 4.50448 19.2098 29.4644 0.0163238 -0.0275991 -0.0115379 
139 2 3.19054 22.4123 26.5244 -0.0254857 0.031287 0.0315636 
128 1 0.603498 23.5275 26.4424 -0.00189955 0.0102551 0.0432017 
140 2 1.17554 24.4843 26.7251 -0.0609801 0.0309223 -0.0110295 
351 2 14.8536 -8.89519 11.9196 0.0220281 -0.0914544 0.0227654 
54 1 13.0589 -1.30917 -7.13055 -0.00642343 -0.00918269 -0.0064346 
538 2 35.883 0.525251 -11.9545 0.0726989 0.0912548 -0.0246636 
379 1 32.2957 4.03072 10.9898 -0.00972988 0.0392773 -0.0202567 
30 2 23.4725 4.23383 11.6842 -0.00742316 0.0443041 -0.0204572 
66 2 14.0572 -1.38397 -6.81226 -0.0468616 -0.0310201 -0.0151126 
20 1 30.8083 6.9383 11.4027 0.00807693 -0.0204276 0.0107904 
53 1 13.5423 -1.69185 -4.60269 0.00824121 -0.0206222 -0.0137015 
45 1 12.6835 -1.62858 -5.7356 -0.0245316 -0.00543419 -0.0110037 
65 2 14.0995 -0.792202 -4.61571 0.0569371 -0.0151442 -0.0452712 
62 2 13.9867 -1.69856 -2.73015 -0.0701018 -0.00913703 -0.0390824 
50 1 13.3093 -1.97657 -3.45519 -0.00628239 0.0222279 -0.00510409 
61 2 12.6859 -4.09679 -1.28806 -0.128134 0.00442705 -0.0277759 
43 1 12.3955 -3.09669 -3.03188 0.00208863 -0.00224572 -0.00494919 
390 2 30.6584 0.417397 3.46556 -0.0678892 -0.0157753 -0.0126433 
378 1 31.1745 0.463366 4.39842 0.0183339 -0.0121555 -0.0246688 
393 2 32.0477 1.89261 3.08617 0.0115246 -0.0143267 0.00368024 
394 2 32.3871 4.25794 3.92272 -0.03548 0.028617 -0.0207864 
381 1 31.878 1.71989 4.09282 -0.0124334 -0.00787457 -0.00232788 
352 2 17.3477 -8.54566 11.454 -0.108194 -0.00162869 -0.0708953 
32 2 31.7294 7.38983 11.0141 -0.0445585 0.0219054 0.0284714 
252 2 35.944 -11.9195 -4.47199 -0.034388 -0.00166572 -0.0716949 
373 1 29.549 0.0478143 9.79785 0.0154016 -0.000640575 -0.0496207 
377 1 30.234 -0.94303 6.30882 0.0315281 -0.00611919 -0.0156111 
389 2 29.7603 -1.35834 5.42443 -0.0234985 0.0294123 -0.0204534 
374 1 29.9985 -1.02053 7.6273 0.00636452 -0.00820718 0.00897335 
386 2 29.4263 -1.86652 7.94558 -0.0040766 0.00514466 -0.0231547 
385 2 28.6172 -0.49296 9.6775 -0.0195438 0.104911 -0.045671 
11 1 27.2052 3.58807 11.5574 0.00405504 0.0224435 -0.00371067 
22 1 28.2259 3.0017 10.8754 -0.00935237 -0.0198073 -0.0016585 
34 2 27.7754 1.87625 10.4649 -0.0041282 0.0470859 0.0557225 
36 2 29.5874 3.76691 9.66914 -0.0569304 0.0597458 0.00307546 
369 1 31.0897 0.21783 5.91162 0.017008 -0.0201623 -0.0279284 
24 1 29.2041 3.8794 10.6234 0.00616882 0.0229469 -0.0127927 
367 1 30.2055 0.00573216 8.71601 -0.0130844 -0.0151479 -0.00896776 
12 1 29.4642 5.06445 11.477 0.00776297 0.00249376 -0.0299274 
33 2 24.914 2.40952 11.3523 0.0633478 0.00604477 0.0122672 
21 1 25.7376 3.22392 11.5172 0.0132305 -0.0262418 0.0429279 
368 1 31.0706 1.93153 10.598 0.014299 0.0206871 0.00352143 
392 2 34.1236 5.5841 10.0575 -0.0026791 -0.00496538 0.0825052 
363 1 31.6152 1.15029 6.85717 -0.00707918 0.00346165 -0.0168475 
383 1 34.0731 5.28765 8.09083 -0.00976604 0.0319356 0.0073481 
380 1 33.3797 5.20884 9.33691 -0.0327315 0.0271403 -0.0202927 
382 1 32.6328 3.98397 4.89359 0.00631078 0.000324039 0.0280386 
366 1 32.6585 3.15946 7.32387 -0.00813337 -0.00444338 -0.0154993 
364 1 31.9845 3.04535 8.72509 0.0279392 -0.030105 -0.0118471 
396 2 33.3858 5.82824 5.73929 0.000422342 0.0160565 -0.0237263 
372 1 33.5379 4.31365 7.15626 0.00372461 -0.0118038 -0.0232639 
384 1 33.2287 4.82827 5.72926 0.00298869 0.00707853 -0.00787738 
371 1 32.7433 2.46287 4.96578 -0.0186668 -0.0273246 -0.0158366 
365 1 32.4332 2.36173 6.39167 0.0229988 0.0307143 -0.0143045 
370 1 32.3825 4.2273 9.65756 -0.00127288 0.0148528 -0.0107397 
361 1 31.0764 1.03596 8.13671 -0.00956287 -0.0116711 0.000601708 
362 1 31.0111 2.12055 9.05796 0.0076353 -0.0211324 -0.0154269 
23 1 30.4372 5.72097 10.7365 0.0106928 0.00323732 -0.0143816 
35 2 30.7239 5.47521 9.72849 -0.0344547 -0.0348262 -0.0285859 
395 2 35.1316 5.09242 7.63935 -0.00908926 0.0299635 0.0306849 
375 1 29.9069 0.990858 10.7725 0.032556 0.0412196 -0.00372152 
376 1 31.684 2.77009 11.5532 -0.0288278 -0.00277562 -0.0241476 
391 2 32.7334 5.05709 11.2831 -0.0700285 -0.0349463 0.0119609 
387 2 29.1535 0.759395 11.4606 0.0929744 -0.0074883 -0.0528932 
349 2 12.6405 -9.01611 13.841 0.030228 -0.0160559 0.0848154 
339 1 14.8106 -8.65464 12.9384 -0.0175109 0.0185805 -6.96461e-05 
337 1 13.7546 -8.795 13.7271 -0.00510554 -0.00789894 0.00205105 
350 2 13.1903 -10.5623 15.6038 0.0269037 -0.0182304 -0.0196372 
338 1 13.6619 -9.70821 16.1246 -0.0102459 0.0107628 0.00863432 
331 1 14.4217 -8.66137 15.0987 -0.0131582 -0.00968817 -0.0238185 
341 1 14.152 -9.47373 17.2254 -0.0171443 -0.00249158 -0.0246278 
332 1 16.3764 -8.69004 13.4325 -0.0168861 0.00829533 -0.00588113 
325 1 15.5299 -8.45236 15.7034 -0.0079764 -0.0287781 0.00728335 
327 1 16.107 -8.18099 17.0088 -0.000448653 0.00817337 0.0223486 
326 1 16.7722 -8.50722 14.7445 0.0194347 -0.00634176 -0.00163797 
340 1 17.4168 -8.52354 12.5784 -0.0100978 0.00268747 -0.00647854 
329 1 17.5463 -7.88804 17.2493 -0.0023172 -0.00556096 -0.00643499 
328 1 17.9765 -8.49319 15.118 0.00372555 -0.000335132 0.0336794 
348 1 20.1916 -8.44595 18.2383 -0.00799735 -0.00987589 0.0220978 
330 1 18.4176 -8.63544 16.4988 -0.0281567 -0.0108654 0.00223997 
336 1 19.7318 -8.67817 16.8118 -0.0115982 0.00084943 0.0275197 
334 1 19.204 -8.32001 14.3659 -0.0161741 -0.013674 -0.0137723 
344 1 20.4651 -8.93786 14.8205 0.000353318 -0.0110486 0.00203516 
360 2 20.9077 -9.20801 18.5946 0.0241753 -0.0666186 -0.0247048 
347 1 20.6422 -9.31719 16.0601 -0.0337936 -0.00288369 0.0203494 
359 2 21.6189 -9.54251 16.3778 0.0240554 0.0368462 0.00211147 
356 2 21.2631 -9.10867 14.199 0.0683321 -0.0174371 0.0998954 
343 1 18.7226 -8.15638 13.0398 0.0254846 -0.0145874 0.00955586 
355 2 19.1376 -7.68433 12.228 -0.0142492 0.0186849 -0.0224033 
18 1 24.7481 4.11228 12.0591 -0.0243557 0.00538683 -0.0333739 
527 1 32.4405 -1.22872 32.851 -0.0110594 0.00350299 -0.00825435 
29 2 22.8115 5.45321 13.195 0.0820485 -0.0205537 -0.0429432 
5 1 27.3192 4.9299 12.3553 -0.00323609 -0.00096065 0.0196071 
9 1 24.9553 5.07763 13.1763 0.0301753 -0.00823067 -0.0132944 
3 1 26.353 5.50776 13.2519 0.0154161 0.00647157 -0.0218291 
388 2 32.0091 2.51392 12.5406 -0.0219886 -0.0456931 0.0280043 
526 1 35.3369 -0.606205 35.2666 -0.00392727 -0.0197957 -0.00535885 
529 2 35.5709 -8.50064 33.6621 0.0381855 0.051365 0.0211479 
25 2 25.2491 10.1314 13.5458 0.032092 -0.0364799 -0.0205371 
26 2 23.8588 7.88293 12.3754 -0.0101065 0.0234963 -0.0211164 
17 1 23.7118 5.81446 13.4851 0.0149708 -0.000485219 -0.00638629 
14 1 24.0671 7.2244 13.3376 0.0084787 -0.0144095 0.00452016 
13 1 25.3913 9.08047 14.2088 0.0108486 -0.02947 -0.00871352 
7 1 25.2997 7.60776 14.0775 0.00612259 -0.00513074 0.0114527 
27 2 26.6973 10.7084 14.1818 -0.0591045 0.00827814 -0.011567 
15 1 26.7373 9.58998 14.3749 0.00578948 0.0116393 0.000987329 
1 1 26.5175 6.83309 13.8618 0.0219436 0.00910024 -0.0172378 
28 2 29.0416 10.1397 14.7078 0.0561862 0.00838931 0.0285265 
8 1 27.8628 8.76989 14.1998 -0.00224962 0.0126989 0.0281598 
2 1 28.0439 7.34604 13.9189 0.048627 0.000974388 -0.000413941 
6 1 28.5044 5.56543 12.329 0.0221558 -0.0433254 -0.0331948 
16 1 29.0017 9.68229 13.7796 -0.00141004 0.0152033 -0.00778208 
4 1 29.1143 6.60167 13.3012 -0.0129473 0.00786998 -0.00340436 
19 1 30.1764 8.80943 13.0734 0.0235718 -0.0103804 -0.00316851 
10 1 29.8638 7.53515 12.4716 -0.0161916 -0.00944003 0.0119845 
31 2 30.9539 9.55562 13.0661 -0.0441833 -0.0731413 -0.0252607 
517 1 35.6008 -7.54902 33.3957 -0.00840774 -0.00300039 0.00765051 
516 1 33.4369 -1.46024 33.8382 -0.0222513 0.013538 -0.0193433 
333 1 15.2697 -8.35577 18.0379 -0.0101886 -0.0103603 -0.0270016 
353 2 14.1462 -10.0323 18.0681 -0.0255277 0.00341355 0.0789766 
354 2 15.3956 -8.30883 20.2311 -0.00220095 -0.0638212 -0.066273 
342 1 15.7891 -7.89726 19.2675 -0.0175572 0.014238 0.0156577 
345 1 16.7419 -6.71031 19.191 0.0060923 -0.0171973 -0.017426 
335 1 17.9244 -7.47574 18.6099 -0.00201524 0.0181679 0.00394409 
346 1 19.29 -7.77968 19.1214 0.0169579 0.00805843 -0.00284823 
358 2 19.4015 -7.74284 20.2195 -0.0387616 0.162218 -0.0653399 
357 2 16.8701 -5.78794 20.1836 0.0514769 -0.0325371 0.0439975 
531 2 34.6199 -8.62116 31.7083 -0.0562547 0.0360883 0.0565889 
519 1 34.4543 -7.47762 32.4649 -0.00190031 -0.011469 -0.015921 
528 1 34.049 -0.372177 34.7611 0.0113442 -0.0046015 -7.1254e-05 
524 1 32.1268 -2.30312 32.0618 0.000751602 -0.00717901 -0.0354162 
536 2 31.3776 -2.15011 31.3568 0.0276394 -0.0226775 -0.04646 
540 2 33.4692 0.308195 33.7104 -0.00408907 0.00160632 -0.0615935 
510 1 34.18 -2.8168 33.9923 0.00612449 0.00538121 -0.00232373 
509 1 35.5015 -2.86964 34.5269 0.0300015 0.00557028 -0.015489 
505 1 35.7124 -5.08259 33.717 -0.00356822 -0.0239108 0.00671411 
514 1 32.7318 -3.57693 32.0923 -0.00822878 -0.00214418 0.0155697 
532 2 32.237 -6.65842 31.0511 -0.0453954 0.112902 -0.00635308 
523 1 32.1362 -4.46015 31.189 -0.0265898 0.0165026 -0.00481076 
539 2 31.839 -0.340871 32.5273 -0.000547841 -0.029423 0.00799533 
506 1 34.4259 -5.01677 33.191 -0.0173249 0.00556098 0.0059783 
520 1 32.7765 -5.64663 31.2085 0.00388131 -0.00114233 0.0306781 
512 1 33.7992 -6.15454 32.1888 0.0363077 -0.0052328 -0.00399726 
508 1 33.5839 -3.94369 33.1581 0.0110667 -0.00977128 -0.00132656 
515 1 35.9457 -1.89654 35.5437 0.04287 -0.0196603 0.00418151 
535 2 31.3702 -3.89723 30.5449 -0.00692427 -0.0217676 0.0416582 
224 1 35.1659 29.8925 -6.5391 0.0141486 0.00587797 0.000110838 
231 1 34.6233 28.6062 -6.29762 0.0123472 0.00216228 0.0155846 
243 2 34.2415 28.0641 -7.09839 0.0409959 -0.131111 0.0153545 
573 2 12.8041 28.6051 2.47119 0.00147436 0.0144655 0.0431765 
232 1 35.6626 30.1728 -7.85441 0.0150095 0.000824754 0.0080655 
560 1 16.3208 24.0744 -2.14763 -0.00342965 0.00721844 -0.0116203 
572 2 16.3729 23.2902 -3.06304 -0.0583267 -0.0372932 0.0636491 
550 1 16.1251 23.5349 -0.910418 -0.00316358 0.0140735 0.00305255 
557 1 12.7275 24.5286 4.77787 0.0158777 0.0298827 -0.00630579 
563 1 15.9647 25.5213 -2.10531 -0.00613661 0.015176 0.0090823 
575 2 16.5899 26.4115 -2.13033 0.0449546 0.0168921 0.0894958 
562 1 13.5258 27.8884 -0.185454 0.000850369 -0.00487462 0.0171801 
564 1 13.9204 27.1965 -1.4819 -0.00350049 0.00374681 0.0139777 
576 2 13.3087 27.4558 -2.36139 0.0483442 0.146407 0.0277087 
552 1 14.6565 26.0184 -1.32431 -0.00689609 -0.0159001 0.0405247 
546 1 14.4749 25.3755 0.0210074 -0.00249113 -0.00857474 -0.0178443 
245 2 35.412 29.744 -0.288127 -0.0568034 0.069622 0.0447006 
230 1 34.6924 28.9888 -2.26705 0.00117688 0.00994589 0.0113113 
241 2 34.0181 27.4891 -4.63428 0.0247117 0.044682 -0.0767103 
223 1 34.7948 29.2707 -3.8205 0.00291926 -0.00555045 0.0117589 
229 1 34.3578 28.5299 -4.92224 -0.0260662 0.0114529 -0.00327093 
233 1 35.1038 29.6791 -1.32305 -0.00635391 -0.0192823 0.0216983 
242 2 34.7905 27.9162 -1.99684 -0.00798225 0.0180062 0.0512152 
217 1 35.7097 30.5678 -4.01308 0.00751095 -0.00583525 0.0155765 
221 1 35.5746 32.8731 -3.27765 0.00789789 -0.0040871 -0.042096 
219 1 35.9055 31.518 -2.83829 -0.00379474 -0.00417612 -0.00313657 
574 2 13.0273 28.7786 -0.680383 0.0136815 0.0370628 0.119293 
250 2 34.6134 35.8484 -2.12461 0.124719 0.0463568 0.0183201 
551 1 13.415 27.2561 1.1402 0.0185684 0.0167786 0.0139138 
218 1 35.5343 30.9251 -5.42842 0.0129963 0.0198142 -0.00211971 
237 1 35.4605 33.6431 -0.800761 0.000237276 0.00423965 0.00786293 
227 1 35.6556 34.0628 -2.37318 0.00255294 0.0077496 0.0262322 
566 2 14.1492 23.5449 6.17863 0.0178413 0.0173443 -0.00756047 
238 1 35.1396 35.2225 -2.80724 0.0400278 0.016829 -0.000958113 
240 1 35.1325 35.3302 -4.23697 -0.0011911 0.0215387 -0.0285149 
543 1 13.8662 24.8927 2.31875 0.00794694 0.0290214 0.0210929 
561 1 12.8892 27.5339 2.50507 0.0132833 0.000551186 0.00239867 
545 1 13.8359 25.8116 1.0841 -0.0157978 0.0110391 -0.0121413 
225 1 35.1257 31.1373 -1.69738 -0.0157273 0.00576464 -0.00829221 
549 1 13.1078 25.4107 3.66136 -0.0135952 -0.0120434 -0.0229267 
554 1 13.7501 23.6111 5.1194 -0.00941157 0.0262777 -0.00298236 
541 1 14.7107 23.7804 2.60214 0.0218886 -0.019503 -0.00914888 
544 1 15.3718 24.112 0.134671 -0.0167134 -0.000149373 -0.0162665 
548 1 16.1914 22.2802 1.63851 -0.00415029 0.000258033 0.00228702 
542 1 15.3249 23.5028 1.42035 0.0282542 0.0122559 0.00814825 
547 1 14.7502 23.1391 3.96756 0.00798236 -0.00315305 0.00800514 
556 1 16.9401 21.7699 0.421462 -0.00928516 0.0179827 -0.0198174 
553 1 15.425 21.9643 4.12858 0.0194444 -0.00189787 -0.00879414 
565 2 15.1483 21.646 5.27482 0.0372317 -0.072105 0.0328133 
567 2 15.0901 20.7457 2.44225 -0.0817765 0.0894556 -0.088989 
555 1 16.0358 21.3333 2.82783 -0.0358954 -0.00415283 -0.00911075 
559 1 16.8008 22.0717 -1.0391 -0.0042454 0.00482761 -0.0230783 
568 2 17.3838 20.7433 0.25457 -0.081926 -0.0093079 -0.00218201 
571 2 16.54 21.6452 -1.91626 0.0124472 0.0260321 0.0676501 
234 1 35.236 32.1978 -0.503373 -0.00175225 0.000316555 -0.00585689 
570 2 12.3153 27.1138 4.7599 -0.0168683 -0.112939 0.0431077 
246 2 34.9438 31.9249 0.400377 -0.0551779 0.0490187 -0.0806504 
558 1 12.5618 26.8389 3.70425 0.0341318 -0.00852936 -0.012615 
228 1 35.7554 34.4826 -5.30435 0.00544458 0.0213735 -0.007765 
249 2 35.9908 33.9773 0.100624 0.0389913 0.0444307 0.110026 
569 2 12.1433 24.74 5.6896 0.0360918 0.0443422 0.0788459 
500 2 45.2932 -0.185631 9.95309 -0.102227 -0.0399725 0.0251875 
497 2 39.5197 -0.867961 2.82161 0.0616789 0.00254858 -0.045216 
485 1 40.4434 -0.59123 3.32852 -0.0233646 0.0266664 -0.00905625 
494 2 42.0195 -1.71923 1.76302 0.00732054 -0.0605533 -0.125431 
482 1 41.746 -0.892503 2.85748 -0.00902052 0.00310199 0.00400624 
475 1 43.1047 -0.525129 3.46624 -0.0129412 0.0098902 0.00207254 
493 2 44.5969 -2.18923 2.47041 -0.00571258 -0.0723279 0.0502441 
481 1 44.0807 -1.63736 3.30934 0.002056 -0.0248173 -0.0228903 
469 1 43.1407 -0.12845 4.92541 0.0132827 -0.0132608 0.0191128 
483 1 44.8369 -2.4294 4.58405 0.00913597 -0.00191381 0.0299432 
495 2 45.2701 -3.53224 4.49477 -0.0529774 -0.0575738 0.0593312 
477 1 40.7591 0.291864 4.38033 -0.0252189 -0.000836295 0.0165954 
471 1 41.9778 0.308932 5.17982 -0.00307163 0.0264065 -0.00544033 
486 1 39.6027 1.11961 4.67626 0.0509539 -0.0124959 -0.010939 
498 2 38.7189 1.16638 4.05172 0.0621067 0.0525231 0.0731828 
501 2 39.8208 3.34823 5.24706 -0.02972 0.0619104 0.0388487 
489 1 40.3263 2.38824 4.99384 -0.000828637 -0.0154089 0.0200475 
474 1 42.6238 0.884113 7.15963 -0.00919825 -0.00434541 0.0169195 
537 2 37.5443 -1.54233 -10.4562 -0.00180831 -0.0302919 0.0248301 
496 2 46.0343 -3.47058 6.4178 -0.0423937 0.00289509 -0.0616065 
484 1 45.5133 -2.56536 6.91924 0.0206572 -0.0158915 -0.0507604 
476 1 44.8038 -1.96025 5.7686 0.00153143 0.0334403 0.00423741 
470 1 43.7041 -0.818938 5.91697 0.00228901 0.00277998 -0.0134588 
487 1 45.6335 -2.03843 7.96196 0.0301431 -0.0174801 0.00786748 
478 1 44.8104 -0.570624 7.97414 0.0223296 0.0102482 -0.0186037 
499 2 46.3127 -2.62518 8.69696 0.0678204 -0.0702664 -0.0279853 
502 2 40.6103 4.46854 7.27148 0.0694932 0.0592639 0.0119326 
504 2 42.2555 4.27826 8.59865 -0.0393116 -0.0167093 0.0230984 
490 1 41.2184 3.56154 7.32051 0.0158092 0.000874945 -0.0211373 
479 1 41.1982 2.70084 6.08124 -0.0044416 -0.0105953 0.0040174 
473 1 42.0373 1.3329 6.0495 0.00823342 0.00390107 -0.035557 
492 1 42.2763 3.16882 8.11631 0.024233 0.0023965 -0.0142735 
491 1 43.9137 1.30975 9.34924 0.0105805 -0.000750656 0.0108881 
503 2 43.7528 1.65624 10.4846 -0.0228805 0.0393947 0.0215254 
480 1 42.9312 1.87939 8.20891 -0.00960752 0.00178776 0.0196296 
488 1 44.6235 0.223087 9.29239 -0.0116838 -0.00858751 -0.0182233 
472 1 43.7654 -0.136716 7.17363 -0.0415378 0.00354151 -0.00484964 
525 1 37.2018 -1.87112 -11.6151 -0.0293239 0.00595233 0.0113956 
534 2 38.467 -3.65832 -11.0213 0.0506722 -0.037835 0.0702105 
522 1 37.8695 -3.07569 -11.8275 0.00676642 -0.0337019 0.0211617 
196 1 42.9447 11.5599 -11.8658 0.00506198 -0.00214304 -0.00396086 
102 2 43.8234 6.30362 30.9893 0.0173339 0.0678266 0.0568425 
98 2 43.4325 1.98526 29.0087 0.0116041 -0.0541494 -0.00808696 
74 1 47.7004 4.05128 28.1641 0.0193076 -0.00682661 -0.0123026 
86 1 44.0911 2.98914 29.0249 0.0188457 0.0136119 0.0227805 
73 1 46.3586 4.2008 28.7081 -0.0188379 0.0158775 -0.00760339 
79 1 45.475 3.03193 28.4937 0.00395709 0.0168725 0.00904089 
75 1 46.0125 5.52424 28.8651 -0.00429494 0.0262411 -0.00813038 
81 1 44.5542 5.55325 29.1432 0.00326357 -0.00556393 0.0197108 
90 1 44.187 6.62408 30.0194 0.0228063 -0.0204722 -0.0171937 
89 1 43.6711 4.31198 28.9691 0.014436 -0.0178814 -0.0299857 
85 1 46.1998 1.75797 28.7156 -0.0313968 0.0283255 -0.0183228 
97 2 45.2028 1.39475 29.4666 -0.00605133 -0.109928 0.00997567 
87 1 47.4559 1.53754 28.1139 -0.00095459 -0.0111359 0.00448871 
76 1 48.5362 4.97505 28.1059 -0.0113207 -0.00531613 -0.00883793 
80 1 48.1325 2.74628 27.7051 -0.018886 -0.0191804 0.0204331 
99 2 48.0179 0.666483 27.5349 -0.0512548 -0.028248 -0.0165433 
88 1 49.0511 2.94588 26.5438 -0.000427332 -0.0206405 0.00909234 
100 2 49.0363 2.52742 25.4724 -0.0259411 -0.0887709 0.0767874 
91 1 50.119 3.96591 26.3835 0.00983531 -0.00431623 0.00806198 
82 1 49.8104 5.20144 27.2464 0.00643884 -0.00994958 -0.0139079 
103 2 51.0968 4.01398 25.5491 -0.0227028 0.00273469 0.0496949 
77 1 46.901 6.37121 29.1709 0.00663108 -0.0105974 0.0238841 
93 1 45.222 7.69431 29.8936 0.0299713 -0.00544602 -0.0094037 
105 2 45.2081 8.30968 28.7238 0.124974 0.053391 0.065541 
83 1 46.6358 7.76744 29.6318 0.0254539 0.0147597 -0.00614531 
106 2 47.0123 10.1251 29.3277 0.0289933 -0.0387251 -0.037139 
108 2 49.5718 9.36537 29.6326 0.00896211 0.00472481 0.0177759 
94 1 47.1144 9.15067 29.6334 0.0483855 0.0175463 0.0146805 
78 1 48.2632 6.28166 28.7124 -0.0194415 0.0204637 0.0107284 
96 1 48.5106 8.76663 29.3957 -0.00951425 -0.0121835 0.0198735 
84 1 48.9933 7.41169 28.7026 -0.000410959 0.0198646 -0.000885809 
95 1 50.4166 7.28595 28.3644 0.0256307 0.00934276 -0.0291815 
92 1 50.6119 6.29254 27.4238 -0.019109 0.00181925 -0.0174172 
104 2 51.3004 6.22743 26.6673 -0.09361 0.0348712 0.0803026 
203 1 42.319 7.57801 33.1579 -0.025346 0.0201309 0.0213581 
200 1 43.1651 8.31835 34.1398 -0.0255286 0.018274 -0.0192732 
530 2 38.5196 -7.31198 33.4123 0.00216969 0.0564397 -0.000888363 
511 1 36.4307 -6.40101 33.9163 -0.00510292 0.00999838 0.0181475 
518 1 37.9401 -6.26024 33.8771 -0.0208543 -0.00898008 0.00337411 
521 1 38.2564 -5.22194 34.8151 0.0053623 -0.0147986 -0.00321585 
513 1 37.3956 -4.172 35.3649 0.0196999 -0.00647996 -0.00671064 
211 2 44.7641 10.5882 35.0919 -0.0529931 -0.0795362 0.0948817 
199 1 43.6377 10.8115 35.1039 0.0124681 0.00471241 0.00691676 
533 2 39.3141 -5.02466 34.7832 -0.0470402 -0.0682139 -0.0916235 
210 2 36.4929 11.6959 30.5683 -0.0287552 0.0261909 0.0597112 
107 2 50.5909 8.45515 28.2127 -0.0741564 0.0169931 0.013948 
101 2 42.623 4.62723 29.4544 -0.109193 0.0610004 -0.063565 
214 2 38.8962 7.35012 30.1055 -0.0265445 -0.0362374 -0.0266641 
216 2 40.2297 6.07826 31.6827 -0.00456803 0.0212609 -0.0480705 
204 1 40.1229 7.17705 31.7563 -0.00261863 0.00436206 0.001741 
202 1 38.9849 7.82063 31.0625 -0.00569085 0.00435447 -0.00726448 
182 1 41.0496 11.1873 34.2993 -0.000514185 0.0246422 -0.0103292 
192 1 41.0747 7.85281 32.8085 -0.0320855 -0.0164791 -0.00706568 
213 2 37.2831 9.41283 30.0101 0.136575 0.0603757 0.0190129 
191 1 38.4501 9.01264 31.7133 0.00644042 0.00559066 0.00118368 
186 1 40.6102 9.4507 33.0242 0.0286086 -0.00621988 -0.0114623 
185 1 39.2257 9.77152 32.6226 0.0220949 -0.0281966 0.00212106 
181 1 39.8176 11.6134 33.8085 -0.00944042 -0.0188689 -0.00746752 
198 1 37.0484 10.9869 31.4012 0.0181983 0.00491811 -0.00390272 
183 1 38.7304 10.8789 33.032 -0.0107683 -0.00109876 0.0110978 
189 1 37.6196 11.6029 32.6986 0.0253876 0.00421757 -0.0265563 
201 1 37.6057 9.85629 30.833 0.00670078 0.00790916 -0.00937992 
184 1 41.3827 9.97943 33.8701 -0.00597162 -0.0117576 0.00623821 
190 1 42.903 9.72853 34.3452 0.0136028 0.00761557 0.00843814 
215 2 42.8689 6.61083 32.9309 -0.0131939 -0.00889316 -0.0622974 
507 1 36.206 -4.2253 34.6717 0.00782998 0.0270082 0.0088721 
212 2 43.9588 7.64787 34.0422 0.00938034 0.00406711 -0.0501551 
239 1 36.6213 34.7515 -6.53921 0.00876259 0.00937863 0.0166861 
430 2 50.7264 23.5072 -6.06072 0.0556359 0.0708933 -0.00393987 
226 1 36.006 32.5088 -6.9318 -0.0152306 0.00505637 -0.0222309 
248 2 37.3245 34.1103 -8.43657 0.0230217 0.0411272 -0.0528203 
236 1 36.791 33.6934 -7.56382 0.0179278 0.000757074 -0.0144095 
247 2 36.4808 31.8631 -8.8471 -0.0591509 -0.075496 -0.0139169 
235 1 36.0362 31.4636 -7.96613 -0.014666 -0.00174997 0.00711393 
220 1 36.2849 32.0782 -5.63568 0.00244258 -0.00712386 -0.0240201 
292 1 56.833 16.6718 -1.74645 -0.0127457 -0.039561 0.00404849 
289 1 58.2665 15.4721 -0.419633 -0.0122938 0.0151404 -0.0337124 
290 1 56.9381 15.9374 -0.581654 -0.00516401 0.0139528 -0.0176849 
291 1 59.4732 15.346 -1.17455 -0.02406 -0.000783379 0.019963 
316 2 53.755 17.1967 0.992256 -0.0805337 0.07577 -0.0261899 
304 1 54.4567 16.9023 0.0759669 -0.00328237 -0.0126505 0.0250343 
294 1 57.7844 16.2685 -2.78942 -0.00696309 0.0200168 -0.00401897 
300 1 57.6781 17.2209 -3.82913 -0.00495116 0.00878779 -0.0119384 
432 2 49.9201 21.6578 -5.06613 -0.163455 0.0772899 -0.0887979 
419 1 49.0578 21.1412 -2.13494 -0.0254967 0.0328057 0.0480369 
406 1 49.1108 22.1203 0.047306 0.00486034 0.00511937 0.00208666 
400 1 49.8205 23.1964 -0.564298 -0.00751946 0.0202243 -0.00432588 
416 1 48.5404 21.0595 -0.832329 -0.0304074 -0.0107595 0.0138139 
428 2 48.2025 20.1933 -0.566169 0.00185593 0.0287489 0.0310073 
408 1 49.3747 22.3143 -2.96619 -0.0102998 -0.0234681 0.0138167 
431 2 49.4727 20.3586 -2.51375 0.0114476 -0.123975 -0.00869222 
420 1 49.8594 22.3537 -4.33115 0.00259199 -0.0154092 -0.0353159 
402 1 49.5483 23.5221 -2.0364 0.00151414 0.0139657 -0.00130776 
319 2 54.2858 18.5963 -0.851241 0.0128255 0.0736055 -0.0275936 
298 1 55.417 17.1119 -2.10586 0.00885351 -0.0317464 -0.0286295 
307 1 55.0202 17.7901 -0.902319 -0.0226471 0.0136898 -0.00284129 
320 2 54.62 18.4157 -3.4175 0.00872001 0.000705775 -0.0379986 
308 1 55.4388 17.5966 -3.22321 -0.0151456 -0.0189015 -0.0129514 
323 2 56.2373 18.2 -4.91238 -0.0896342 -0.00326785 -0.0603823 
311 1 56.3686 17.644 -4.14429 -0.0153611 -0.01576 -0.0218745 
429 2 50.41 25.7978 -6.17703 -0.0182911 0.00840832 -0.00635442 
398 1 49.6409 24.3176 0.0325247 -0.0086523 -0.0154808 0.045613 
425 2 48.3773 28.7922 -3.14039 0.022563 -0.000494933 0.00375573 
410 1 48.3946 27.5901 -1.10622 0.00477799 0.00518835 -0.000209017 
418 1 50.2487 23.5388 -5.08022 -0.0171749 -0.0267117 -0.0286941 
403 1 48.7318 26.5403 -0.160997 0.00250688 0.00533473 0.00684154 
413 1 48.67 27.9757 -2.3963 0.00180931 -0.000161116 0.00972862 
426 2 50.9439 27.9874 -4.51706 0.073061 0.0332084 0.0616139 
397 1 49.1708 25.4763 -0.752848 -0.0222018 0.0073949 0.0209675 
399 1 49.6166 25.8368 -2.22283 0.0201623 0.0107111 0.00435729 
405 1 49.4437 26.8557 -3.0952 0.0202656 0.0120032 0.0163697 
401 1 50.2112 24.635 -2.7637 0.0226701 -0.0149228 0.00989989 
414 1 50.1731 27.1871 -4.4223 -0.0211299 -0.0195464 -0.0230615 
417 1 50.2004 25.8936 -5.02066 0.0123108 -0.0177704 -0.00481214 
407 1 50.3086 24.6065 -4.1298 -0.0198072 -0.0149899 0.0157665 
222 1 36.0124 33.185 -4.55061 -0.0457658 -0.00688968 0.00164901 
296 1 55.6004 16.0066 0.180667 -0.0240469 -0.0182424 -0.00535016 
302 1 59.4924 13.6256 0.873681 0.0128163 0.0148035 0.0164633 
295 1 58.2014 14.3675 0.558947 0.0307984 0.00826873 -0.00398956 
313 2 56.6099 12.8728 1.26297 -0.0938344 -0.0272692 -0.0389209 