ITEM: TIMESTEP
50000
ITEM: NUMBER OF ATOMS
576
ITEM: BOX BOUNDS pp pp pp
-1.2000000000000000e+01 8.4000000000000000e+01
-1.2000000000000000e+01 3.6000000000000000e+01
-1.2000000000000000e+01 3.6000000000000000e+01
ITEM: ATOMS id type x y z vx vy vz 
207 2 33.5436 0.526463 -7.71199 -0.0251682 0.0191177 -0.0252107 
195 1 33.4046 1.29167 -8.52338 -0.00352399 -0.00149425 -0.00135529 
205 2 31.5971 0.55091 -9.30377 -0.0667039 0.0969852 0.0254167 
193 1 32.5368 1.22772 -9.59043 -0.0207096 0.00285332 0.0176498 
187 1 32.6206 1.92437 -10.8355 -0.00949846 -0.00249414 -0.0013632 
181 1 33.9684 2.41739 -10.7736 -0.0216696 -0.00701657 0.00979936 
188 1 34.6284 2.11919 -8.47929 -0.00882362 0.0121171 -0.00641623 
182 1 34.5473 2.92162 -9.75 -0.0127958 0.0141207 -0.00662373 
183 1 33.9447 3.32556 -11.8665 -0.00669752 -0.0137913 0.00805282 
194 1 31.4163 1.96432 -11.5818 0.00149509 -0.00216721 0.00187902 
185 1 34.8989 4.31212 -11.9615 -0.0128294 -0.0117447 -0.000658896 
206 2 30.4245 1.98546 -11.0089 0.0748456 -0.0404991 -0.029279 
196 1 35.1138 2.41476 -7.1666 -0.0429603 0.0108153 0.0208211 
184 1 34.8136 4.30664 -9.6237 -0.00392951 0.00682843 -0.0244886 
186 1 35.254 5.10836 -10.6562 -0.00344904 0.0316886 -0.0103656 
208 2 35.1008 1.82934 -6.26452 0.0480398 -0.0274773 0.0363011 
212 2 35.1567 6.38905 -7.31036 -0.044965 0.0266399 -0.00676234 
190 1 35.5829 4.4946 -8.39489 -0.0420589 0.0254392 0.00359419 
200 1 35.6686 5.92103 -8.1322 -0.0347366 -0.0109416 0.0108938 
203 1 35.906 6.86354 -9.10842 -0.00379819 0.01709 0.00545251 
215 2 35.6922 7.87006 -8.68419 -0.0296133 0.0444197 -0.0733985 
100 2 30.3803 -6.32338 18.4303 0.0114983 0.070153 -0.0530907 
99 2 30.4303 -3.01899 18.4366 0.0412001 -0.0390459 -0.0666568 
91 1 29.4056 -7.15433 20.0159 -0.00255232 0.0365661 0.00047077 
76 1 31.1126 -6.31679 21.8202 -0.0198616 0.026377 -0.0224945 
82 1 29.8318 -7.101 21.5149 -0.0206521 0.00690587 -0.0276048 
88 1 29.8977 -6.0666 19.2864 0.000763662 0.0337248 -0.00791863 
80 1 30.7045 -4.86045 19.8466 -0.0092861 -0.00247329 -0.00853162 
74 1 31.4686 -5.27973 20.9187 -0.00242119 0.0107485 -0.0164972 
92 1 29.6889 -8.09879 22.4602 -0.00374407 0.0250051 -0.0243501 
104 2 28.751 -8.72504 22.1373 -0.0633523 -0.0484091 -0.0282719 
103 2 28.8981 -7.81598 19.5071 -0.0380611 0.0928465 -0.00604817 
78 1 31.8568 -6.44212 23.0629 -0.0231753 0.00987522 -0.0161307 
97 2 32.2031 -1.5054 19.5043 0.00622634 -0.0169143 -0.175724 
85 1 32.0566 -2.66246 19.6939 0.0397674 0.035623 0.0163051 
87 1 31.0199 -3.50602 19.3706 0.0101606 0.0182828 0.00678936 
73 1 32.7621 -4.56534 21.4342 -0.0135394 -0.0143472 -0.00750063 
86 1 33.4333 -2.08556 21.7254 0.00940341 0.0102783 0.0262354 
98 2 33.3344 -1.11302 21.1368 -0.0463159 0.0480262 -0.0246805 
101 2 34.0343 -1.13913 23.3673 -0.0219058 0.0752394 0.00205146 
89 1 33.5361 -2.07811 23.0329 0.0483179 -0.00399405 -0.00208771 
79 1 32.5987 -3.1059 20.9355 0.0133918 -0.00352214 -0.0241381 
81 1 33.5757 -3.48588 23.5379 0.0314262 0.0081158 0.00962284 
75 1 33.2416 -4.55388 22.729 -0.0261184 -0.00338583 -0.00567043 
95 1 30.6085 -8.58937 23.4709 -0.0135155 0.00315448 0.00139158 
84 1 31.4515 -7.70537 23.8844 -0.0267302 0.0107072 -0.0178601 
94 1 32.6097 -7.18439 25.9886 -0.0176846 0.00224185 0.0279039 
107 2 30.3327 -9.51872 24.0459 -0.0552403 0.130025 -0.0184067 
96 1 31.5854 -7.98232 25.3902 -0.0301288 0.0181141 0.0241612 
108 2 30.6887 -8.57917 25.9793 -0.0296919 0.0487211 -0.0336594 
198 1 32.5443 4.68831 34.3831 -0.00983181 0.000791245 -0.00553749 
102 2 34.3341 -2.963 25.5069 -0.00763883 -0.0720618 -0.0539825 
77 1 32.7065 -5.67413 23.6562 0.00122796 0.00175956 0.00484281 
93 1 34.0307 -5.08135 25.6328 -0.00457655 -0.00234589 -0.0105612 
90 1 34.1971 -3.75602 24.8681 0.00662006 0.00520762 -0.00957182 
83 1 32.9361 -5.90774 25.0541 -0.0152722 -0.0299482 -0.0108511 
105 2 34.5937 -5.62295 26.2301 -0.0151009 -0.0553579 -0.06293 
189 1 32.647 3.64067 35.4142 -0.0390723 -0.0241199 -0.0268158 
209 2 30.4473 3.29666 34.8607 0.0182299 -0.0618649 0.0378498 
197 1 31.3587 3.02268 35.5106 -0.0290851 0.0195365 0.00359429 
210 2 31.647 4.48937 34.0237 0.0185836 0.0484246 -0.0213208 
201 1 33.6525 5.58987 34.5918 -0.0323713 -0.0123309 -0.00321862 
106 2 33.4059 -7.1667 26.9976 0.0464921 -0.0155331 0.0463976 
213 2 33.7449 6.55406 33.9584 0.0236362 -0.00460579 -0.0555076 
191 1 35.0822 5.36534 34.9919 -0.042409 0.0181611 -0.00671018 
463 2 19.1987 22.2499 6.25549 -0.0759356 0.0361878 -0.000648837 
460 2 21.0276 22.9514 7.11611 0.0823352 -0.0350182 -0.0786155 
318 2 24.8648 16.4848 -11.6468 -0.0958387 -0.0224447 -0.00889784 
448 1 21.188 22.2923 6.30813 -0.00945305 0.00170608 0.0147787 
459 2 22.9764 24.0593 6.40303 0.0649863 -0.0148288 -0.0380182 
447 1 23.3611 23.1468 6.0748 -0.0162789 -0.000267374 -0.00107384 
453 1 23.4394 17.8384 1.0809 0.0339219 -0.00284829 0.00834478 
465 2 23.6906 17.3179 0.030142 0.0850389 -0.0245741 0.00369587 
466 2 21.2764 17.8217 -0.431866 0.038822 -0.0387594 0.0656321 
464 2 17.7944 20.2753 5.46476 0.0160507 -0.035528 0.0528108 
467 2 17.4955 19.1077 3.48409 -0.0350134 -0.027092 0.0943335 
468 2 18.8039 17.8991 0.964316 -0.0511867 -0.0291469 0.0323203 
450 1 24.5228 18.7476 1.05965 0.0198503 0.00573098 0.0196742 
454 1 20.9659 18.1497 0.585785 -0.00254114 -0.0131103 -0.00487471 
452 1 18.4682 20.1255 4.5693 0.0118447 0.0230041 0.0226164 
455 1 18.6946 19.1032 3.69907 0.00673247 -0.0236931 -0.0124967 
451 1 19.9991 21.5791 5.81389 -0.00976296 -0.00793947 0.00908057 
443 1 22.0986 18.4187 1.47797 0.0298766 -0.0314671 0.0231521 
435 1 23.2035 19.824 2.97508 0.0186836 0.00232474 -0.0150542 
433 1 23.2825 20.8419 3.7921 0.0195883 0.0051301 0.00732485 
434 1 22.2047 21.2081 4.60792 0.0479356 -0.00773167 -0.0134333 
440 1 22.4108 22.004 5.78367 -0.0211447 -0.00451229 -0.0187946 
437 1 22.2396 18.8117 2.89963 0.00491291 0.00778565 0.006166 
436 1 21.0914 20.3941 4.22742 0.0146617 0.00984858 0.0169139 
438 1 21.0377 19.1957 3.2528 -0.00933112 -0.00832439 0.00949563 
442 1 20.0036 20.5923 4.76528 0.00887195 0.00306118 0.00371554 
444 1 19.8208 18.7019 2.84999 -0.00464479 0.0121407 0.0134844 
456 1 19.8109 18.1396 1.49224 -0.00960084 -0.0287054 -0.0179057 
462 2 25.4711 18.1227 1.14617 -0.0198287 0.0215062 -0.105845 
441 1 24.4368 19.5838 2.29235 -0.0166714 0.000433907 0.02322 
445 1 24.2094 23.0285 5.10529 -0.00449992 0.0313703 -0.0295183 
439 1 24.4043 21.6175 4.36244 0.00149367 -0.00749121 0.00117434 
458 2 26.4391 21.9606 4.06502 -0.0117919 0.020596 0.0409627 
449 1 25.5929 20.3121 2.78893 0.013581 0.00636466 0.0159991 
446 1 25.5278 21.3844 3.62529 -0.00138585 0.0152406 0.00594234 
461 2 26.5991 20.2363 2.46325 -0.0842322 -0.041977 0.032323 
457 2 24.9936 23.8731 5.08089 -0.0103604 0.0385304 -0.062131 
319 2 22.4902 20.4504 28.1027 0.00507406 0.0690195 -0.00595073 
314 2 20.0173 15.8209 34.0217 -0.0448862 0.0161531 -0.0360509 
297 1 23.2219 16.6354 34.6147 -0.0112409 0.00150965 0.0032617 
305 1 21.9738 16.2867 35.1867 0.0093204 -0.0201748 -0.0231188 
302 1 20.8906 16.3459 34.262 0.0255805 -0.00323967 0.00537114 
295 1 20.8576 17.2893 33.2589 0.0183832 -0.0313909 0.00833111 
301 1 19.4682 17.7091 32.3197 -0.00586572 -0.00323931 0.0170058 
313 2 18.8621 18.1973 33.0007 -0.128003 0.0218964 -0.00304192 
289 1 22.0379 18.1661 32.9745 0.0308851 0.0145391 -0.0196587 
315 2 19.7342 18.9008 30.4751 -0.0475639 -0.0106932 -0.0166254 
303 1 20.0124 17.9608 31.0184 -0.0267381 0.0170027 -8.5163e-05 
291 1 23.1308 17.8871 33.9671 -0.015663 0.00596108 -0.00476168 
316 2 21.3751 18.5809 28.4581 0.00919654 -0.0605228 -0.022069 
304 1 21.9943 18.7038 29.3281 -0.0360499 -0.0191378 -0.0324989 
296 1 21.5078 17.9067 30.5818 0.00796968 -0.0171793 0.0151111 
290 1 22.2743 18.4327 31.53 0.0185615 -0.0279929 -0.00425014 
307 1 22.2815 20.134 29.0932 -0.0198014 -0.0168693 -0.018202 
292 1 23.259 19.6148 31.4616 -0.0166446 0.00190846 -0.00441165 
300 1 25.2719 20.3945 31.9188 0.0275372 0.013144 -0.0456138 
308 1 24.1346 21.5482 30.5148 -0.0196958 -0.0153327 -0.00752505 
294 1 24.1993 19.6227 32.5759 -0.0204842 -0.00686919 -0.0161975 
298 1 23.0648 20.4764 30.3613 -0.0298928 -0.0164098 -0.00519363 
320 2 24.1627 21.9319 29.5284 -0.0316936 -0.0300489 -0.0280287 
311 1 25.1233 21.8814 31.5996 -0.0125429 0.00857897 0.000899321 
323 2 25.8454 22.5771 31.6978 0.0318517 -0.0885667 -0.068936 
293 1 24.2422 18.6365 33.5127 0.0309329 -0.00226498 0.00288629 
312 1 26.5366 19.8109 32.5003 0.0215684 -0.00444033 -0.00994318 
324 2 27.5511 20.0885 31.9664 0.00998029 -0.0749597 -0.0564841 
299 1 25.519 18.4612 34.0942 -0.00451239 0.0141165 -0.00309301 
310 1 26.652 19.2616 33.7818 -0.00335455 0.0297106 -0.0365736 
309 1 25.922 17.2174 34.948 -0.00116507 -0.0101094 -0.0154286 
322 2 27.645 18.8528 34.2179 -0.038406 -0.00876157 -0.0319485 
306 1 24.6289 16.7166 35.3031 0.00918263 0.00836508 -0.0138968 
321 2 26.5935 17.2304 35.588 -0.00327557 0.0155775 -0.0378425 
317 2 22.0357 15.4496 35.8755 0.0216889 -0.0832132 -0.025451 
31 2 36.8675 -11.1906 2.28058 0.0397803 0.0476595 -0.0268567 
520 1 43.5065 11.0099 3.28175 0.0141264 -0.0071299 0.00302264 
199 1 35.9997 3.48889 -7.3405 -0.00396608 0.011773 0.0241584 
211 2 36.6744 3.83604 -6.54538 0.0738028 0.0207266 0.0629488 
514 1 42.8834 11.0894 1.06742 -0.00638199 -0.0324597 -0.00566985 
535 2 42.6805 9.20266 2.12572 0.0739293 -0.0122514 -0.0111101 
532 2 43.7427 10.4517 4.25636 0.0598501 -0.0351254 0.068815 
36 2 39.873 -7.50292 7.114 0.00452691 -0.0214064 -0.137121 
523 1 42.8742 10.4173 2.30871 0.010115 -0.000665116 -0.0136754 
24 1 39.1671 -8.38571 7.40603 -0.00217434 -0.0194511 0.0155966 
11 1 39.6753 -10.5005 8.6055 -0.00168811 -0.0185699 -0.00682328 
192 1 36.0981 6.15844 -10.5199 -0.02573 0.0234269 0.00170492 
204 1 36.8625 6.79972 -11.6353 -0.0122102 0.00793252 -0.0233731 
216 2 37.3564 7.85119 -11.489 0.0853658 0.0171545 -0.0153995 
22 1 39.3536 -9.159 8.60421 -0.0348072 -0.029128 0.00363922 
539 2 41.7647 10.2892 -2.35077 0.0243176 -0.0783189 -0.0290195 
536 2 41.9982 9.68014 0.197783 0.0251775 -0.0455981 -0.0527765 
524 1 42.4592 10.5426 -0.231252 -0.0159356 -0.00736075 -0.00227459 
527 1 42.0341 10.9409 -1.56495 0.00235578 -0.0206616 0.00204458 
5 1 39.2829 -11.3372 7.47879 -0.00499827 -0.00107734 -0.0140879 
4 1 38.5006 -11.6028 5.2585 0.0206435 0.0108878 0.0103524 
32 2 38.2286 -9.28103 3.03014 0.0429369 -0.0220265 -0.0290256 
10 1 38.2682 -10.9327 3.64402 -0.0388174 0.00206382 -1.30331e-05 
20 1 38.2855 -9.51849 3.98337 0.00300715 0.0129929 -0.00325573 
23 1 38.2622 -8.75416 5.13635 0.00575089 -0.0176777 0.00530388 
35 2 38.4087 -7.69534 5.17308 0.0210321 -0.100862 -0.0209686 
12 1 38.8564 -9.22686 6.36021 0.00119086 -0.00552158 0.00478528 
34 2 40.1197 -8.64266 9.18108 -0.0164548 -0.088057 0.04698 
6 1 38.8923 -10.7073 6.23959 -0.00666583 0.0333666 0.0274438 
21 1 40.5341 -10.9654 9.70317 0.0377075 0.000479906 -0.00227294 
33 2 40.857 -10.402 10.5309 0.0798436 0.0174854 -0.049491 
19 1 37.4622 -11.8379 2.98336 -0.0217785 0.0198556 0.00681879 
496 2 48.2482 -8.70773 15.8979 0.151782 0.00458581 0.0478573 
484 1 48.3232 -9.31629 16.737 -0.00117177 -0.0245689 -0.0232231 
495 2 49.2054 -10.1374 15.3381 0.00379272 -0.0802223 0.0362644 
483 1 50.0634 -11.1049 16.0257 0.0237683 0.00536021 -0.00113753 
476 1 49.2451 -10.6196 16.9918 0.0182925 0.00410097 -0.0139073 
471 1 51.9763 -11.8185 19.4237 0.0207193 -0.00166515 0.0113172 
470 1 49.8835 -11.2561 18.3193 -0.00918483 0.00782722 -0.0263109 
487 1 48.5225 -8.62033 17.9957 0.0312262 0.0299347 -0.00836792 
488 1 48.3144 -8.7705 20.4328 0.0266853 -0.00326914 0.0113378 
503 2 48.8022 -8.24517 22.3413 0.00375621 0.0139559 0.0187326 
478 1 48.616 -9.37777 19.1618 0.00661581 0.0135311 -0.00301422 
500 2 47.9633 -7.74484 20.3801 0.011273 -0.0208444 0.0127846 
499 2 48.2456 -7.49736 17.8216 0.0251527 -0.0764241 -0.016258 
491 1 48.8148 -9.15606 21.6462 0.00830285 0.0181532 0.00286944 
214 2 37.13 6.43884 34.4616 -0.0502885 0.107937 -0.00245268 
504 2 49.2876 -10.6185 23.8396 -0.0371469 0.0096322 -0.0325431 
472 1 49.3185 -10.6735 19.4521 0.0233209 0.0118836 0.0109849 
202 1 36.371 6.15743 35.1594 -0.030492 0.0232719 0.000898098 
473 1 51.0074 -11.698 20.6778 -0.00300791 0.00215911 0.00462513 
469 1 51.1855 -11.8484 18.1855 -0.0211287 0.00879227 -0.0182983 
490 1 50.8259 -11.7457 22.8755 0.0111909 -0.025144 -0.00628495 
480 1 49.5803 -10.161 21.8611 -0.00945407 0.0176894 -0.00510193 
492 1 50.0112 -10.7592 22.9469 0.000613955 0.0083474 -0.000917588 
474 1 50.0549 -10.7653 20.686 -0.0350646 -0.00370946 0.00286843 
257 1 51.3611 17.0594 -7.00438 -0.0231851 -0.0133988 -0.0114734 
263 1 52.7093 16.3724 -6.95814 -0.0215656 0.000148688 -0.00203549 
273 1 53.6172 16.2746 -8.05999 -0.00392886 -0.0118312 -0.0101343 
270 1 53.5676 17.1879 -9.11643 -0.00159237 -0.00796754 -0.0178179 
282 2 54.1001 17.1338 -9.93412 0.0294874 0.0649743 0.0674117 
285 2 54.5131 15.6411 -8.01952 -0.0615289 0.0295494 -0.00445476 
280 2 47.7885 21.6333 -4.56573 -0.0131162 -0.0781863 0.0819584 
260 1 48.8479 20.5197 -6.42854 -0.00896715 0.00174477 -0.0114447 
253 1 50.4618 19.0399 -7.93405 0.000347213 0.0157621 -0.00103682 
259 1 50.8671 20.2353 -8.73266 -0.0305891 -0.00359337 -0.0179451 
255 1 51.1339 17.8953 -8.15317 0.0053393 -0.0345344 0.00790136 
279 2 48.5196 22.2925 -7.82875 0.00786825 -0.015429 -0.0439166 
267 1 48.9447 21.3725 -7.6373 -0.0122781 0.021168 0.0151467 
254 1 49.5664 19.2666 -6.76092 0.00817303 0.00891846 0.00963368 
265 1 50.3045 21.416 -8.29413 -0.0272477 -0.0080612 -0.00855058 
277 2 50.4151 22.3924 -8.95159 0.0454571 -0.0954771 0.117499 
266 1 51.4674 20.0126 -10.0609 0.00506799 -0.0277205 -0.0176725 
269 1 52.1528 18.9075 -10.2132 -0.00602149 -0.0179735 -0.0110924 
278 2 51.7814 20.8899 -10.7408 0.0223263 0.0560723 -0.0412022 
261 1 52.3025 17.9134 -9.08802 -0.00757025 0.00885796 0.011395 
281 2 52.7801 18.2798 -10.8053 0.00932115 0.025869 -0.0634914 
540 2 40.9487 12.8635 -3.4373 -0.0852402 0.00869869 -0.0197899 
516 1 42.2153 12.3002 -1.47074 -0.0152507 -0.0127776 0.00968648 
538 2 41.1824 15.2845 -3.11721 -0.0111543 0.0430988 0.0274758 
528 1 41.6291 13.0539 -2.61434 0.0260557 -0.012569 0.00889268 
526 1 41.7305 14.5308 -2.31203 -0.0222512 -0.0205525 0.00175327 
515 1 42.2736 15.3269 -1.25097 -0.000891036 0.0177061 0.0296124 
510 1 42.748 13.1828 -0.219328 0.00437423 -0.0166505 0.0215864 
509 1 42.9193 14.6093 -0.043788 0.00500091 -0.0211267 0.0179425 
537 2 42.2751 17.5044 -1.96999 -0.0308691 -0.0573237 0.0372036 
525 1 42.892 16.6612 -1.48061 -0.0161972 -0.00784317 -0.0169325 
286 2 53.3544 14.3058 -5.50014 -0.00921382 0.0362129 -0.0738512 
284 2 47.5837 16.7819 -3.56205 0.00204619 -0.0630973 0.00160063 
287 2 49.0342 15.1681 -3.791 0.00190101 0.0656292 -0.0564183 
275 1 49.4581 16.1662 -4.06867 0.00471529 -0.0189537 0.00266177 
272 1 48.4142 17.1502 -4.09031 -0.00034756 0.00702123 0.00802333 
264 1 50.7573 16.1826 -4.81887 -0.0164922 0.0182796 -0.0210414 
288 2 51.1885 14.1664 -4.45101 -0.000363174 -0.116788 -0.0604623 
276 1 51.4274 14.9943 -5.12049 -0.00423409 0.0207839 0.0102184 
258 1 50.7769 17.324 -5.82921 -0.00333749 0.0150789 -0.013193 
274 1 52.7047 15.2245 -5.91496 0.0152321 0.0147207 0.00565538 
283 2 46.651 19.2376 -4.02782 0.0317713 -0.0253471 0.0442258 
522 1 43.4875 17.4189 -0.50033 0.0309072 -0.0206101 0.0293642 
534 2 43.768 18.5972 -0.692814 -0.0272819 -0.0368679 0.0758958 
271 1 47.7316 19.4982 -4.46542 -0.00666232 0.00925672 0.00724238 
268 1 48.16 20.679 -5.17339 -0.0133293 -0.0115423 0.00698247 
262 1 48.4263 18.4307 -4.72902 0.0223612 -0.000671556 0.0136639 
256 1 49.5631 18.2332 -5.89179 -0.00464604 0.00705818 -0.0159659 
18 1 40.97 35.79 9.48141 0.0100412 0.0100768 -0.0342254 
1 1 39.04 34.447 6.30319 0.0105466 0.0313435 -0.0102728 
507 1 43.8922 15.3243 0.795848 -0.00426745 -0.00929175 -0.00905607 
513 1 44.0192 16.7 0.631199 -0.0360271 -0.014513 0.00913904 
30 2 41.794 35.1688 9.98618 -0.046017 0.00121736 0.0792161 
508 1 43.3468 12.487 0.82843 0.00689109 0.00180175 -0.0210413 
17 1 40.4391 33.5268 8.52874 0.015318 0.000439489 -0.0193041 
29 2 40.8278 32.7687 9.58626 -0.000411428 0.0853825 0.0341054 
506 1 43.0992 13.1735 2.18827 0.00574838 0.000395757 -0.00386968 
512 1 43.4238 12.5397 3.48821 0.0236531 -0.0184465 -0.00469548 
505 1 43.6862 14.4598 2.0259 -0.0107246 -0.0138973 -0.01616 
511 1 44.1899 15.3698 3.05747 -0.00272815 -0.0318483 0.0283848 
519 1 43.8267 13.4202 4.52417 -0.0064526 -0.032011 0.0213347 
517 1 44.2208 14.8598 4.33519 -0.0061306 0.0071015 0.00837966 
531 2 44.416 12.9029 5.28112 0.00578219 0.00316066 -0.0362566 
529 2 44.31 15.4982 5.24373 -0.00677583 0.0346912 -0.0688338 
521 1 43.5207 17.595 1.84123 -0.0175576 -0.0075925 0.02051 
533 2 42.8555 18.4728 1.55623 0.05338 -0.0375541 -0.0688194 
518 1 43.6351 16.9124 3.06152 0.00212131 0.00339407 0.00701354 
530 2 43.2218 17.2597 3.91222 0.000295577 -0.041905 -0.0075476 
9 1 40.4563 34.8745 8.387 0.0258396 -0.00197798 0.00860758 
16 1 37.2194 34.6604 2.97058 0.0125349 0.00272531 -0.00303488 
8 1 37.545 34.2058 4.38352 -0.023463 -0.0034803 0.00990737 
28 2 36.503 33.9086 2.45874 0.0733762 -0.0878292 -0.011967 
14 1 39.7881 32.7494 7.57507 -0.00415837 -0.00401849 -0.0191634 
2 1 38.5614 34.9613 5.11492 0.0290859 0.0112731 0.016307 
15 1 37.1414 33.0029 4.95422 0.000209262 0.00128162 -0.00472683 
26 2 40.1434 31.7788 8.21504 0.0893623 -0.023716 0.00938304 
3 1 39.6687 35.2616 7.44683 -0.00471966 -0.00369661 0.0186412 
25 2 37.0024 32.2677 7.002 0.0335937 -0.0189367 0.0364208 
13 1 37.6725 32.6773 6.247 0.040272 -0.00209114 -0.00736229 
7 1 38.9885 32.9431 6.47836 -0.00966759 0.00133723 -0.0184183 
27 2 36.6564 31.9905 4.75869 0.00866582 0.0196774 -0.0292888 
497 2 54.9234 35.1371 17.5959 -0.0110194 0.106266 -0.0059787 
482 1 53.2413 35.0218 16.9123 0.013336 -0.022148 0.00558193 
485 1 54.0232 35.7394 18.0632 0.00446223 0.00428853 -0.00837909 
494 2 53.7618 34.4198 16.2589 0.0393754 -0.0206001 -0.0041196 
477 1 53.4535 35.7008 19.3312 0.00645297 -0.00284923 0.0122272 
498 2 54.9452 34.6639 20.4187 0.0268789 0.0578737 0.0216644 
486 1 53.8872 34.9238 20.5194 0.0159518 -0.0289665 0.0122932 
489 1 52.9931 35.0854 21.6089 -0.00649817 0.0106166 0.00725229 
501 2 53.238 34.7248 22.6878 -0.0972887 -0.0502271 -0.014443 
475 1 51.8953 35.528 16.916 0.0275313 0.011248 0.00134794 
493 2 51.1648 35.305 14.8764 -0.0280801 0.029658 0.0918985 
481 1 50.9481 35.8368 15.806 -0.00558353 0.00553403 0.0238676 
479 1 51.7088 35.9699 21.7621 0.0123761 -0.0106706 -0.000281543 
502 2 50.9729 35.7307 23.7173 -0.0604564 0.0166483 0.0509765 
168 1 73.1298 8.46654 -11.912 -0.0384259 -0.000270427 -0.00148375 
157 1 70.8203 1.33291 -11.3143 -0.00147806 -0.0176612 -0.00626768 
169 2 71.0214 0.302083 -11.4474 -0.000141942 -0.0946444 -0.120333 
170 2 72.2032 1.08197 -8.49699 -0.00604325 -0.126283 0.061318 
158 1 71.9877 2.04111 -8.88494 -0.00168092 -0.0388295 -0.0126584 
151 1 71.3378 2.31314 -10.2911 0.0227302 0.015709 0.00160324 
541 1 66.7453 -11.8619 9.49722 -0.00849644 -0.0148938 -0.0082205 
145 1 71.6284 3.78034 -10.7886 -0.00366096 -0.0114447 -0.0141133 
161 1 72.6555 3.19273 -8.40205 -0.00638859 -0.0170045 -0.0169083 
173 2 73.2921 2.54474 -7.60993 -0.00693019 0.00711923 -0.115816 
147 1 72.464 4.63288 -10.2398 0.010716 -0.0288899 -0.0197116 
153 1 72.7582 4.44919 -9.0985 -0.0119032 -0.0268613 0.00423623 
149 1 72.7818 6.0642 -10.824 0.0214773 0.00378912 0.003077 
155 1 73.7144 6.92731 -10.0617 -0.0170146 0.0285735 -0.00568502 
162 1 73.4713 5.35024 -8.15858 0.00732856 -0.0109 0.0116524 
165 1 73.8635 6.60229 -8.69541 -0.00526997 -0.00756298 0.00266164 
177 2 74.2402 7.34459 -7.95246 0.00902478 -0.0338534 0.0722214 
174 2 73.5015 4.96528 -6.98914 0.0366837 -0.146091 -0.0114323 
166 1 73.6096 8.33924 -10.7037 -0.0101508 0.0099948 0.00977673 
178 2 74.5282 8.80591 -10.0482 0.0287481 0.0397105 -0.136818 
387 2 70.6709 1.49327 0.587822 -0.0190925 -0.0671874 0.0340383 
388 2 71.9952 -0.698591 0.351264 0.0356119 -0.0191004 0.000208598 
375 1 70.0298 0.924694 1.14353 0.0449312 -0.00414515 0.0151663 
385 2 68.4261 2.61243 1.82461 -0.0406892 0.0595503 -0.0202135 
71 2 71.8258 2.97025 -2.22927 0.0293601 -0.0470409 0.0129165 
68 2 72.746 4.41716 -4.04772 0.0183491 0.0290016 0.00241458 
56 1 73.1382 4.28131 -2.97267 0.00397788 -0.0139665 -0.0178725 
59 1 72.3845 3.86416 -1.93431 0.0288375 -0.000497442 -0.0220345 
72 2 72.1715 1.55761 -0.954345 0.0622293 0.0929799 -0.0691123 
48 1 73.059 3.50087 -0.964794 -0.00272344 -0.00818113 -0.01908 
67 2 74.6851 6.10332 -4.27107 0.0629332 0.022092 0.048699 
46 1 74.0812 5.46978 -2.68997 -0.00462724 0.0333116 -0.0316015 
55 1 74.6044 6.76622 -3.32643 0.00654953 -0.000286197 0.0226724 
64 2 75.4743 8.78704 -2.56373 -0.147564 0.114372 0.0534774 
52 1 75.2832 7.65209 -2.46304 0.00566668 -0.010946 0.015804 
44 1 75.9916 7.16825 -1.28981 -0.00492908 0.00826367 -0.00341678 
40 1 74.4362 5.3047 -1.2079 0.00793711 0.0154419 -0.00925334 
38 1 75.3764 6.09457 -0.561653 0.00310592 0.000693562 0.0111777 
51 1 76.9155 8.1488 -0.856082 -0.00266875 0.023222 -0.000576422 
63 2 77.0122 9.08016 -1.33474 0.0035298 -0.0469235 -0.0729344 
568 2 63.7751 -10.6117 6.04053 0.108173 0.0292733 -0.028995 
395 2 71.3041 -6.19922 4.15421 0.0329375 -0.0140055 -0.0386557 
363 1 67.1768 -1.79851 2.49596 0.00664306 -0.000291738 -0.0200112 
369 1 65.8232 -1.22573 2.83117 -0.000261553 0.0262123 -0.00386607 
377 1 65.6245 0.144461 2.53876 0.0202563 0.0206129 -0.00751809 
371 1 66.3326 -3.85338 3.83638 0.00206945 -0.00408989 -0.00448641 
390 2 64.262 -1.10574 3.82603 7.74812e-05 0.0449291 -0.0166802 
381 1 65.0183 -3.28796 4.10107 0.0121685 0.000681354 -0.018134 
393 2 64.1264 -3.3785 4.74785 0.0579589 0.061257 0.014184 
378 1 65.1258 -1.86032 3.65077 -0.0130709 -0.00140765 0.000346518 
373 1 68.8041 1.49688 1.57771 0.0298078 0.00684002 -0.00107937 
367 1 67.7123 0.612611 1.86153 0.023015 0.00844872 -0.00645432 
361 1 68.0117 -0.721297 2.20397 -0.00320354 0.0198458 0.0114738 
365 1 67.3952 -3.15174 3.22015 0.0255003 -0.00943179 -0.0160165 
368 1 69.9725 -0.620163 1.17968 0.000108748 0.0232202 -0.0100064 
362 1 69.4831 -1.38127 2.23503 0.0219034 0.0278865 0.0270508 
366 1 68.7129 -3.71246 3.13542 0.0165918 -0.00615129 -0.000759523 
376 1 71.1832 -1.31979 0.643898 -0.00496017 0.02218 0.0217027 
379 1 71.406 -2.76058 0.693146 0.0202221 -0.00156829 0.00576934 
391 2 72.3581 -3.23496 0.22424 -0.0375151 -0.0723777 -0.0293716 
364 1 69.5131 -2.81538 2.28724 0.00337582 0.00634394 -0.0103098 
370 1 70.657 -3.55259 1.596 0.0220916 0.00194245 0.00437879 
372 1 69.0713 -5.11639 3.53285 0.00565527 0.011247 -0.0307833 
392 2 70.8889 -5.51786 1.17792 0.0767952 -0.056492 -0.00716978 
380 1 71.0733 -4.99803 2.17139 -0.00707332 0.00378728 -0.0284192 
383 1 70.5446 -5.52105 3.42079 0.0218551 -0.00867237 1.81049e-05 
384 1 68.0887 -5.97311 3.96343 0.00343158 0.00657729 -0.02008 
382 1 67.0142 -5.12925 4.47125 0.000241529 0.00163479 -0.00890371 
386 2 66.655 2.22639 2.07212 -0.0163418 0.0448484 -0.0181925 
389 2 64.507 -0.178935 2.6302 -0.0656677 -0.0289442 0.0179277 
374 1 66.5157 1.11995 2.116 -0.00178166 -0.00903963 0.00853864 
70 2 73.4997 1.00644 1.24272 0.0351516 0.0106145 0.0438287 
60 1 72.7593 2.34293 -0.32496 0.0107379 0.0219185 -0.0012753 
58 1 73.479 1.92315 0.793087 0.0226358 -0.0105319 -0.0126701 
69 2 75.4915 2.49519 2.85584 0.0461852 -0.0145661 0.00743629 
47 1 73.9622 2.91237 1.65002 0.00528032 0.00378132 -0.0108129 
57 1 74.5884 2.76774 3.16624 0.00400647 -0.000194626 -0.00857662 
42 1 73.8807 4.29517 -0.265992 0.0269411 0.00485832 -0.00475204 
41 1 74.1607 4.22589 1.02989 0.0100306 0.033373 -0.00418806 
54 1 74.4383 4.01844 4.05424 0.0179234 0.00402491 -0.00725476 
66 2 73.2614 4.07135 4.36238 0.000581219 -0.0484658 0.0474642 
39 1 74.9217 5.2705 1.68878 0.01044 0.0263463 0.000483626 
45 1 75.2473 5.13211 3.10065 0.0179554 0.00714216 -0.00579951 
37 1 75.8143 6.05491 0.917277 0.0235385 0.0205253 0.0247891 
65 2 76.0272 6.30799 4.75416 0.00699929 -0.0775421 -0.0454122 
62 2 76.7972 7.74994 3.93333 0.0846215 -0.0304401 0.0936197 
53 1 75.8534 6.14149 3.79706 0.0184941 -0.00595718 -0.00305353 
43 1 76.779 6.87188 1.59486 -0.0082897 0.00451215 -0.00549831 
50 1 76.6075 7.09687 2.96766 0.0219759 0.00813055 0.0205252 
49 1 77.1577 7.75308 0.466605 -0.00241068 -0.0113654 -0.00365034 
61 2 77.7563 8.56427 0.974228 0.106564 0.0065022 -0.0447422 
571 2 62.0193 -9.50166 8.2275 -0.124566 0.0552982 0.0211825 
556 1 63.6801 -10.6918 7.18055 -0.0202415 0.0159234 0.0307615 
572 2 61.8321 -9.001 9.95858 -0.0287132 0.0855115 0.011803 
559 1 62.8415 -10.2515 8.19494 0.000832803 -0.019664 -0.000979554 
546 1 65.6645 -9.76246 10.7174 0.0101876 -0.0151415 -0.0033524 
552 1 64.7345 -9.04774 11.7599 0.00328108 0.000956379 0.0156913 
550 1 63.5492 -9.81221 9.3294 -0.00894925 -0.00318154 0.00523711 
560 1 62.9019 -8.69185 10.1248 -0.0112414 0.00959822 0.00424322 
570 2 70.619 -11.6763 11.7398 -0.0546846 0.0532147 0.107198 
563 1 63.4425 -8.73864 11.4871 -0.0069755 -0.00575643 0.0210108 
544 1 64.9258 -10.3092 9.65901 -0.0051205 0.00292896 -0.00470518 
548 1 65.0636 -11.623 7.51351 0.00496715 -0.00690907 -0.0118568 
542 1 65.4813 -11.4667 8.8813 0.0254041 0.00756384 0.0023014 
558 1 69.8138 -11.128 11.4687 0.00330305 -0.0256107 0.000207573 
141 2 66.4842 5.16922 -11.2431 0.0450083 -0.017736 0.0104831 
545 1 66.9083 -9.88732 10.6993 0.0265678 0.036502 0.00529954 
543 1 67.6167 -11.0561 10.1772 0.0242843 -0.0110186 0.000465758 
396 2 68.2009 -6.98366 3.82408 0.136653 -0.0334662 -0.0576338 
394 2 66.5545 -5.91165 5.15759 0.00959653 -0.000277994 -0.0417444 
549 1 68.8585 -11.8144 10.8462 0.00937116 -0.000447922 0.000895082 
126 1 67.5923 3.63309 -11.9159 -0.0268451 0.000962839 0.00781317 
138 2 67.6473 2.96412 -11.0414 0.00616488 -0.0342023 -0.000585636 
551 1 67.8959 -9.28096 11.769 0.00681998 0.0250312 -0.00126089 
576 2 65.2373 -8.30777 13.712 0.0640639 0.0657038 -0.0178558 
564 1 65.6939 -8.66198 12.8756 0.00446572 0.0102565 -8.80466e-05 
574 2 67.732 -9.16843 13.9992 -0.123015 -0.0595245 -0.0259213 
562 1 67.1102 -9.22372 12.9182 0.0214946 -0.0153352 -0.00127786 
561 1 69.1982 -10.0689 12.3471 -0.0201148 -0.00679421 -0.00260837 
575 2 63.0032 -8.46457 12.5268 -0.0352065 0.0471393 -0.021476 
171 2 70.6529 0.469959 34.7904 0.0408918 0.0264865 -0.0653505 
150 1 72.0978 6.40684 36.0367 -0.0161957 -0.00998798 0.0188837 
329 1 76.7405 3.39047 17.8405 -0.0287636 -0.0154304 -0.000278314 
336 1 74.1941 3.85731 17.9778 -0.0251179 -0.00500983 -0.0230626 
360 2 73.1447 1.78787 18.4225 0.0694103 -0.0320473 -0.015682 
330 1 75.5946 4.21679 17.9238 -0.00599982 0.0177979 -0.00790416 
353 2 81.1341 2.2995 17.4415 0.00448705 -0.00126152 0.0750261 
338 1 80.5062 4.53133 17.3057 -0.00296984 0.0100111 0.0338184 
350 2 81.5607 4.86211 17.1741 -0.00725768 0.00783132 -0.0844787 
341 1 80.344 3.08819 17.6205 0.014635 0.0173096 -0.0138838 
327 1 78.0227 3.80434 17.6779 -0.0135652 -0.0334551 0.0191925 
331 1 79.5887 5.63198 17.8015 -0.00920694 -0.012751 0.0252717 
325 1 78.1865 5.3492 17.8615 -0.0236332 -0.00586094 -0.0103815 
167 1 71.4561 7.94509 34.4918 -0.0314678 -0.0118025 0.00405858 
344 1 73.7426 6.05869 17.2447 0.00257678 -0.0234486 0.0267476 
347 1 73.2021 5.00864 18.0845 -0.0109338 -0.0172456 -0.00570076 
359 2 72.1151 4.7434 18.0668 0.0566955 0.0447663 0.123005 
356 2 72.9015 6.6222 16.5235 -0.0066142 -0.0417247 -0.0465812 
328 1 75.87 5.5641 17.4216 -0.0173641 -0.0108685 -0.00551957 
337 1 80.0893 7.10048 17.5036 -0.00794547 0.00941393 0.0410087 
326 1 77.0892 6.14293 17.5036 -0.00374387 -0.0233083 0.000153874 
339 1 79.0314 7.99944 17.2405 -0.0367578 -0.00324998 -0.0232421 
332 1 77.6547 7.3279 17.0347 -0.019879 0.0296388 -0.0025752 
351 2 79.3273 8.96245 16.9757 0.00991742 0.0604122 0.0027452 
349 2 81.2401 7.3809 17.562 -0.0849326 -0.00215875 0.0182727 
345 1 77.3299 0.982672 18.8998 -0.0258977 -0.018913 -0.0237697 
357 2 76.8553 0.0577827 19.2831 -0.0504657 -0.038049 -0.00812491 
358 2 75.008 0.494358 17.3856 0.017338 -0.0601915 -0.0195504 
335 1 76.3767 1.84425 18.1087 -0.00534669 -0.041428 -0.00158879 
346 1 75.0265 1.46129 17.8083 -0.00254728 -0.0354542 0.0140163 
348 1 73.9229 2.4212 17.9847 0.0138817 -0.00327251 -0.00384603 
342 1 78.733 1.34047 18.7646 0.0104005 0.0152191 -0.0067512 
333 1 79.013 2.74828 18.0603 0.00622683 -0.0120782 -0.000357872 
354 2 79.5068 0.52798 18.7459 -0.0651938 -0.0514413 0.0525433 
334 1 75.0728 6.51269 17.157 -0.0101091 -0.0144392 -0.016525 
343 1 75.4109 7.79043 16.7197 -0.00676848 -0.0239808 -0.019245 
355 2 74.7937 8.41099 16.254 -0.013159 -0.00196067 0.0358984 
340 1 76.6803 8.0948 16.611 -0.0133225 -0.0165796 -0.041406 
352 2 76.6977 8.92039 16.0204 0.074797 -0.00125739 0.0374162 
123 1 68.1278 0.907128 29.7762 -0.0220129 -0.00547868 0.0104629 
116 1 67.2496 2.09158 29.9933 -0.00702117 -0.000871462 0.0166732 
135 2 67.6756 0.119856 29.0475 -0.0510353 -0.046175 0.00595837 
118 1 67.1563 4.93513 29.6896 -0.000713454 0.0190831 0.0111386 
124 1 66.5717 2.75609 28.948 -0.0180566 -0.0163623 -0.00324147 
127 1 66.4673 4.09422 28.7473 -0.0130648 -0.0107845 0.00346069 
139 2 66.0003 4.55433 27.69 0.0694883 -0.0415458 0.0431693 
136 2 66.5628 2.02221 28.0464 0.0360895 0.0350491 0.106074 
128 1 68.0251 6.21402 29.5773 0.00144936 -0.00278628 0.00272548 
140 2 68.138 6.8088 28.4152 -0.0454802 0.0186456 0.0506006 
133 2 68.9561 -0.294382 30.7153 -0.0283891 0.0401982 0.0563158 
134 2 68.9601 -0.388323 33.7826 -0.000135558 -0.108445 0.013383 
156 1 72.0831 7.66514 35.7216 -0.0226441 0.00352835 0.00279909 
152 1 71.0948 2.77863 34.6618 0.0319895 -0.0137327 0.00137206 
121 1 68.3932 0.539457 31.1416 -0.0102845 0.0154454 0.0306561 
573 2 69.8789 -9.46629 13.0696 -0.011236 0.0523101 -0.00828818 
129 1 66.7876 4.78271 35.9022 0.0184224 0.0110855 0.0016746 
159 1 70.8755 1.65884 35.2995 0.0286945 0.00632894 -0.032574 
122 1 68.4967 0.728715 33.8356 0.0270822 0.00201699 -0.0439503 
125 1 67.7458 1.28724 35.0038 -0.00859602 -0.000573254 0.0217301 
119 1 66.7729 5.399 34.638 0.0244923 0.024517 0.0122702 