ITEM: TIMESTEP
1100000
ITEM: NUMBER OF ATOMS
576
ITEM: BOX BOUNDS pp pp pp
-1.2000000000000000e+01 8.4000000000000000e+01
-1.2000000000000000e+01 3.6000000000000000e+01
-1.2000000000000000e+01 3.6000000000000000e+01
ITEM: ATOMS id type x y z vx vy vz 
205 2 -7.4777 -3.31002 -3.854 -0.0578918 0.0481611 0.0269692 
127 1 -6.64805 -1.80684 -3.08729 -0.000167018 0.023697 0.0163511 
118 1 -5.84747 -0.722838 -3.74483 -0.0244562 -0.0152926 0.016511 
124 1 -6.59655 -3.25453 -3.30077 0.00133103 0.00362695 0.0220376 
496 2 -5.18874 -5.95892 -3.52848 0.0988851 0.0261881 0.00661715 
123 1 -4.70242 -4.76374 -3.37785 -0.00895302 -0.0131286 0.000180082 
116 1 -5.04821 -3.52867 -3.04529 -0.0275586 -0.00652373 -0.034007 
121 1 -3.62593 -5.0059 -2.39374 -0.00512592 -0.0367174 -0.0025765 
115 1 -2.67183 -3.88464 -2.31508 0.00974509 0.0123513 0.0116313 
139 2 -3.57839 -6.22785 -2.31827 -0.0355213 -0.038377 0.01129 
110 1 -4.07279 -2.37572 -3.25995 -0.00902312 -0.00512265 0.00838081 
109 1 -2.86145 -2.38508 -2.56019 -0.0153425 -0.0127792 0.00843216 
112 1 -4.43118 -1.17463 -4.14721 0.00599974 0.0160572 0.000990265 
111 1 -2.0482 -1.11427 -2.75047 -0.000556055 0.0152667 -0.0236013 
113 1 -2.25353 -0.413318 -4.01108 -0.042285 -0.0118569 0.0107746 
114 1 -3.64407 0.0664675 -4.12475 -0.00483912 -0.0210977 0.000777774 
126 1 0.194507 -0.214824 -3.09476 0.0223691 0.0172492 -0.0054894 
125 1 0.0365796 -2.32388 -1.77497 0.0240926 0.000374783 -0.00634215 
117 1 -0.562088 -1.2746 -2.45996 0.00170801 -0.00380764 0.00271083 
134 2 1.1693 -4.34747 -2.17699 -0.118667 -0.0073172 -0.00107678 
122 1 0.9945 -3.32619 -1.61121 0.00875899 0.00688891 0.0255486 
138 2 1.26065 -0.373474 -2.73294 -0.110912 0.0423576 -0.00116115 
140 2 -6.98135 0.475185 -2.94018 0.0583095 0.0466356 -0.0818648 
143 2 -6.20283 2.65198 -3.91921 -0.0284834 0.0670406 0.00709553 
128 1 -6.01129 0.536735 -3.26465 -0.0218368 0.0126808 0.01271 
131 1 -5.60584 1.57483 -4.10199 -0.0059833 0.00655495 -0.0157976 
120 1 -4.18301 1.37502 -3.99186 -0.0374176 0.00961577 0.0339457 
130 1 -1.99875 2.07942 -3.6553 -0.00338192 -0.0277337 -0.0197003 
132 1 -3.39429 2.57158 -3.44335 -0.0222532 -0.00375842 0.00721345 
119 1 -1.36209 0.810452 -4.05632 -0.0236357 -0.00275511 -9.38523e-05 
142 2 -3.22836 2.63561 -2.2036 -0.0187385 0.128267 0.0459004 
387 2 -1.13649 3.93944 -0.927212 -0.0479422 0.055007 -0.0283262 
373 1 -0.273052 3.49692 -0.276394 -0.0076306 0.00466019 0.00988078 
129 1 0.0887756 0.985205 -3.90402 0.00563264 0.0141842 -0.0408283 
386 2 1.1054 2.857 -2.9989 -0.0448466 -0.0577055 -0.0449642 
374 1 1.42119 3.22681 -2.05344 -0.0290501 -0.0195826 -0.0170351 
377 1 2.75341 3.56156 -2.16698 0.00734347 0.00290129 0.00420566 
369 1 3.80869 3.85928 -1.21925 0.0155414 -0.025062 -0.00143835 
141 2 0.94801 1.36532 -4.50446 -0.0133152 -0.0230816 0.00449499 
381 1 5.94456 3.89012 -1.06296 0.0234785 -0.0277497 -0.00856422 
495 2 5.30023 2.99334 -2.79836 0.0626088 0.0387333 -0.0835229 
378 1 5.02955 3.80037 -2.14525 0.0115987 0.0228383 -0.0222427 
367 1 1.13083 3.44833 -0.625205 -0.00370544 -0.0183938 0.00139907 
375 1 -0.348653 3.65803 1.15785 0.0102518 0.0162585 -0.00995062 
391 2 -0.0630571 1.36878 3.70087 0.0503396 0.0456619 0.00958322 
376 1 0.777912 1.94335 3.19154 -0.0106251 0.00502178 0.00755555 
368 1 0.642459 3.09818 2.08246 0.0101418 -0.00334279 -0.00222887 
380 1 3.96442 2.25903 4.71432 0.00125237 -0.0194646 -0.00102301 
392 2 5.96293 3.2042 5.15855 -0.0886128 -0.039443 0.0162167 
370 1 2.84127 2.12487 3.6436 -0.015676 0.0134722 0.00878177 
383 1 5.06092 3.01162 4.46828 0.00728915 -0.00202625 -0.0165319 
379 1 1.63743 2.25193 4.40384 0.0138796 0.0167204 0.00731199 
364 1 2.93234 3.04826 2.58381 -0.0021298 -0.00930999 -0.000198028 
362 1 1.95675 3.52265 1.67601 0.0201173 -0.0100817 -0.000349925 
372 1 5.37909 3.44066 3.03947 -0.00656581 -0.00390124 -0.00762291 
366 1 4.24602 3.61669 2.17836 -0.0204156 -0.007376 -0.0330546 
361 1 2.16585 3.80875 0.334238 0.018655 -0.0134915 0.0209725 
363 1 3.63569 3.80168 0.0830613 -0.00395618 -0.0142591 -0.00564168 
365 1 4.7242 3.7744 0.912228 -0.00410928 -0.029438 0.00548545 
371 1 5.99788 4.08864 0.327607 0.00303193 0.0123862 0.0290004 
395 2 3.71414 1.65166 5.73503 0.0744315 0.0248815 0.00739827 
384 1 6.71614 3.3735 2.49724 0.00106307 0.0166331 -0.00719661 
396 2 8.34582 4.13525 1.07637 -0.0123839 -0.0284947 0.0302451 
382 1 7.25964 3.90326 1.23627 0.000115363 -0.000488874 -0.0117199 
314 2 2.78966 11.0746 -7.0902 -0.0794147 0.0124362 0.0697586 
104 2 0.751805 4.28044 -5.45366 -0.0667337 -0.0146331 0.0889087 
503 2 1.00142 4.56573 -6.03159 0.0605819 0.0992633 0.0970926 
180 2 9.09286 -0.636306 15.027 0.0455283 0.0097731 -0.0143011 
168 1 8.35152 -1.49652 14.8997 0.00534008 0.0193384 0.0184287 
394 2 -8.9425 4.33778 17.9988 0.0777716 0.0105811 0.0474729 
144 2 -8.3185 4.39202 18.3566 -0.0384927 -0.0357449 0.0121488 
156 1 7.52824 -1.17385 15.6779 0.014597 -0.0294912 0.0586667 
263 1 -11.1225 29.8345 -10.3835 0.0180021 0.0141728 -0.0218987 
273 1 -9.78251 30.3392 -9.80638 -0.00775147 -0.013933 0.00010303 
575 2 -9.22546 30.27 -8.77271 0.0312072 0.0205893 -0.114715 
285 2 -8.56824 30.0729 -11.067 0.0106219 -0.035272 0.0119861 
270 1 -9.01214 31.2073 -10.7048 -0.00575002 0.01641 -0.0166613 
281 2 -10.6548 33.4382 -10.2459 0.0618954 0.0632942 0.0144626 
269 1 -10.2095 33.1448 -11.2225 0.036182 -0.010279 -0.00328034 
274 1 -11.5536 28.6391 -9.48556 0.0240263 -0.0192164 0.0230051 
261 1 -9.81009 31.8174 -11.6579 -0.00847287 -0.00142721 0.0213665 
257 1 -11.3986 29.6649 -11.8719 0.000245545 -0.0146887 -0.0138805 
242 2 10.304 26.6556 5.49331 0.0106183 0.0901146 -0.0226947 
229 1 11.3202 28.6268 6.98503 -0.00687318 -0.00732274 0.00195507 
233 1 11.2567 26.905 4.99777 -0.00489895 0.0216341 0.000432207 
241 2 10.2633 28.8487 6.9104 -0.0700496 -0.0549408 0.0744269 
231 1 11.9163 28.7081 8.21893 0.0072422 0.0161464 0.0172891 
243 2 11.1674 28.9596 9.01495 -0.0527929 -0.0820107 0.0715165 
286 2 -10.7515 28.4527 -8.82896 0.00947499 0.0190686 0.0732874 
223 1 11.8829 27.6908 6.08969 -0.00399871 0.0267616 0.00182499 
71 2 11.8302 17.8514 6.38263 -0.0162082 -0.059635 -0.00865729 
446 1 -4.36861 16.4748 17.5457 0.0342789 -0.000620899 -0.014774 
453 1 -3.88743 16.2174 13.5073 0.0239252 0.0027635 0.0030822 
462 2 -0.993506 16.1047 14.7081 -0.0681997 0.0162535 0.029351 
450 1 -2.59652 16.6926 13.4368 -0.0104854 0.00859799 -0.00912893 
443 1 -1.53286 17.0999 14.4501 0.00372064 0.00914872 0.00473916 
461 2 -2.52731 16.5441 12.2524 0.00582709 -0.0865221 -0.0565687 
464 2 -2.20409 17.0899 16.7372 -0.010427 -0.0044486 0.01069 
449 1 -3.41822 17.2325 17.0904 -0.0177969 -0.0314112 0.00677627 
457 2 -5.84068 20.3678 16.5395 0.0277238 0.0560776 -0.0621405 
465 2 -4.74703 18.7513 17.2828 0.0554129 -0.0295478 0.12605 
441 1 -3.71394 18.7055 17.106 0.0028164 0.00338776 0.000194533 
454 1 -1.35083 18.3764 15.0011 0.00157077 -0.00372104 0.00612367 
456 1 -0.0111288 19.1267 14.5462 0.00813288 -0.00859168 0.00550181 
444 1 -0.276563 20.3297 13.9664 0.0450436 0.023782 0.000747102 
437 1 -2.44832 19.4957 15.0724 -0.0144184 -0.0184872 -0.00280943 
438 1 -1.68355 20.5894 14.4576 0.00919137 -0.00165291 -0.0142726 
442 1 -1.16839 23.0887 14.348 -0.0249825 -0.0109031 -0.032467 
435 1 -3.41525 19.6472 16.0395 0.0100336 -0.00683276 -0.0268236 
436 1 -2.09755 21.978 14.564 0.000745031 0.0265243 0.0052488 
433 1 -3.95166 21.0567 16.0248 0.0114313 0.0441071 -0.00508297 
434 1 -3.10597 22.1306 15.545 -0.0022932 -0.00261339 0.0143104 
440 1 -3.39635 23.5486 15.9213 0.0147074 -0.0236445 -0.0163268 
439 1 -5.17756 21.357 16.5771 -0.00945758 -0.00698319 -0.0109533 
445 1 -5.48979 22.7525 16.1621 0.015449 -0.0366835 -0.00645651 
468 2 0.992734 18.9139 14.6084 -0.0198529 -0.0267397 0.0834277 
452 1 0.181881 22.5283 14.0425 -0.00538071 0.00603519 0.000119807 
455 1 0.867114 21.4277 13.7227 -0.0162861 -0.00534299 -0.00928142 
467 2 1.89841 21.4693 13.5964 0.00384945 -0.0361395 0.0529537 
451 1 -1.27374 24.5654 14.6632 -0.0114693 0.0110461 0.00993772 
448 1 -2.24535 24.5429 15.7821 0.00526475 0.0156297 -0.0145924 
460 2 -2.24187 25.696 15.9212 0.0318882 0.0153391 -0.0655399 
447 1 -4.87496 24.033 15.7026 -0.00575945 -0.00642263 0.00349712 
463 2 -0.300183 25.0873 14.5893 0.0323426 0.0101313 -0.0240366 
459 2 -5.53335 24.8361 15.8951 0.102106 -0.00830992 -0.0736031 
458 2 -5.35879 15.9541 17.8905 0.0395306 -0.020531 0.0744715 
255 1 -10.995 30.9351 35.6281 0.00883535 0.00821657 0.0189217 
266 1 -11.3248 33.4433 35.838 0.00207796 0.0033281 -0.0304676 
259 1 -11.9758 32.9715 34.6549 -0.0131505 0.00839198 -0.0304076 
494 2 32.0473 -9.08019 -1.89988 0.0717115 0.0793213 0.0264153 
498 2 33.3945 -11.4578 -1.6974 -0.0317638 0.00108256 0.116473 
482 1 32.3597 -9.97436 -1.68704 -0.0170683 -0.0291933 -0.0388985 
485 1 32.4574 -11.0466 -1.92642 0.0183292 -0.00195712 -0.00483026 
385 2 13.1479 -11.9172 -6.59672 -0.0818876 -0.00831595 -0.014758 
283 2 16.505 2.61533 -9.1082 -0.0206133 -0.0443302 0.0960018 
278 2 16.6355 1.80452 -9.09892 0.0486653 -0.0286583 -0.025536 
318 2 15.024 1.74251 0.19312 0.0765748 0.0175954 -0.0245563 
570 2 13.7482 -11.3476 -6.84675 -0.0647085 0.0237677 -0.00595221 
389 2 15.3362 0.901705 0.313034 0.115193 -0.0696658 -0.06804 
343 1 25.3672 11.0739 23.572 0.00460191 0.016235 -0.00675999 
350 2 27.3049 5.17969 27.6328 -0.129666 0.104296 0.0317877 
349 2 24.4303 5.98714 26.4392 -0.00737705 -0.0258218 -0.040717 
353 2 28.8846 5.79422 28.7005 -0.00910078 -0.0433615 -0.0574354 
99 2 22.0193 9.93486 26.0997 -0.0144323 -0.0669706 0.00109543 
351 2 24.2768 6.93855 24.3771 0.0337109 0.0322785 0.0132464 
108 2 21.2297 8.42533 25.8854 0.0437225 -0.0559782 -0.0197085 
475 1 21.1526 9.44972 25.8447 -0.00459781 -0.00997482 -0.0157494 
337 1 25.1847 6.7426 26.1337 0.00878724 -0.0152442 -0.000245039 
331 1 26.2452 7.37156 26.944 -0.022873 -0.0214295 -0.0169757 
328 1 26.8215 10.5228 25.6487 0.00449595 0.0308114 0.0100305 
327 1 28.1882 8.75759 27.4072 -0.00629928 0.0028902 0.000528437 
340 1 24.8173 9.81079 23.9566 -0.0032058 -0.0198055 0.0198874 
329 1 28.7082 10.0992 27.538 0.013726 -0.0208572 0.000401515 
332 1 25.5443 8.60762 24.5106 -0.00316727 0.00233222 0.00421959 
326 1 26.1606 9.22466 25.646 -0.00113719 0.00789641 0.00163435 
325 1 26.9433 8.46569 26.621 -0.0113899 0.00181819 0.0195169 
338 1 27.2452 6.37314 27.4886 0.0241875 -0.000712409 0.00233963 
339 1 24.9999 7.3319 25.0724 0.0102774 0.00388753 -0.000338825 
330 1 27.9168 10.9413 26.63 0.00265154 -0.0141914 0.0020108 
341 1 28.2011 6.5688 28.1612 -0.010086 0.0189989 -0.00124335 
334 1 26.3509 11.5803 24.5241 -0.00181045 -0.00954107 0.00561553 
333 1 28.5734 7.88531 28.4326 -0.0164853 0.00519151 -0.014086 
354 2 30.5752 6.97568 28.4645 0.0703767 -0.0718512 0.0800505 
342 1 30.0686 7.90715 28.8662 0.00339592 -0.00147809 0.0141531 
345 1 30.6696 9.30185 28.7446 -0.0178559 -0.0034368 -0.00242333 
346 1 30.3506 11.6439 28.0488 -0.0159479 -0.0112076 -0.00197667 
216 2 31.521 9.36193 29.5149 -0.0205692 0.0399173 0.0288991 
335 1 29.8897 10.4815 28.0962 0.00317505 0.000237725 -0.000314806 
87 1 19.9534 10.0491 26.0273 -0.0222124 -0.0218984 0.0110065 
80 1 18.8878 11.3169 26.0927 -0.0135382 0.000377546 -0.0120687 
68 2 25.2827 11.3228 22.3981 0.0811831 0.0636864 0.066963 
358 2 31.3066 12.1407 28.43 -0.0616388 0.0289162 -0.0511305 
252 2 19.7074 26.804 5.80536 0.168955 0.0624577 -0.0644544 
244 2 13.3026 28.8786 10.3895 -0.0237841 -0.0486995 -0.0614318 
251 2 17.5332 30.7333 8.11103 0.0472223 -0.0240269 0.00984682 
249 2 15.2618 25.4287 1.01377 0.0573787 0.0597645 0.0145601 
246 2 14.1497 24.9011 2.58563 -0.0598594 -0.0652964 0.0314884 
230 1 11.9451 26.9499 3.86075 -0.0223043 0.0198772 -0.0169071 
234 1 15.1758 25.4784 2.15827 -0.000574308 0.0103464 -0.0109777 
225 1 13.1968 27.271 3.99339 0.0104243 -0.0125078 -0.010022 
219 1 14.0985 27.7411 4.79717 0.00463496 0.00235587 0.0131461 
217 1 13.1985 27.829 5.98813 0.00106526 0.00245061 0.00656297 
237 1 16.463 25.8852 2.59362 -0.000448964 -0.0110439 -0.00938853 
221 1 15.6331 27.3085 4.82684 -0.00287131 0.00100805 -0.0162607 
227 1 16.7069 26.6186 4.02057 0.00115167 -0.0154496 -0.00803397 
222 1 16.2004 27.7528 6.00996 -0.00579326 0.00884512 0.0078719 
238 1 18.089 26.2754 4.78986 -0.00122147 0.00143183 -0.00753495 
357 2 17.8158 25.2756 4.35322 0.0464337 0.0318027 -0.0706035 
240 1 18.6937 27.0781 5.85652 -0.0143492 0.0367198 0.00540957 
388 2 19.3144 29.5963 6.93019 0.0529011 -0.0398287 -0.0123315 
235 1 15.2711 29.6247 9.28375 0.00438326 -0.00120511 0.0268608 
247 2 15.3568 30.7132 9.59057 0.0887604 0.019542 -0.0629572 
218 1 13.8647 28.2405 6.92199 -0.0140208 0.0237917 0.0055838 
220 1 15.242 28.3959 6.99876 -0.0126361 0.00723566 0.00794256 
226 1 15.8071 29.2225 8.05516 0.0160343 -0.00742198 0.00914049 
236 1 18.2691 29.1649 6.96542 -0.0149963 -0.0056495 0.00489107 
228 1 17.6926 27.9425 6.25683 0.00541998 -0.0163746 0.0135232 
239 1 17.3013 29.5944 7.72138 0.0344053 0.00159196 -0.0210747 
232 1 14.0083 28.793 9.6103 0.0285133 0.0164317 0.0109176 
224 1 13.3857 28.6203 8.30888 0.00102503 -0.0202006 0.00119375 
504 2 12.0767 16.8674 6.77385 -0.00426694 0.00460859 -0.0922617 
360 2 30.3869 13.2399 27.201 -0.0463353 0.0626176 0.11213 
344 1 26.9458 12.7761 24.4602 0.00746202 -0.000216269 -0.0199043 
359 2 28.685 14.0924 25.1341 -0.0219408 0.0105594 0.0555632 
100 2 19.8803 12.9849 24.6514 0.0110242 -0.0595632 0.0207696 
85 1 19.6541 11.9964 25.157 0.005435 -0.0172379 -0.0209333 
356 2 26.7076 13.7732 23.7787 0.0666981 -0.00360343 -0.0384274 
347 1 28.1227 13.1825 25.322 -0.000199896 -0.00174653 -0.0219787 
336 1 28.2798 12.3527 26.5625 -0.000577465 0.00173907 0.0112962 
348 1 29.6988 12.4012 27.135 -0.00691398 0.00542482 0.0108809 
105 2 36.5439 -7.56696 -5.68942 0.0465744 0.0577982 -0.0428367 
103 2 53.1499 -10.9895 1.16129 -0.0665892 -0.0366442 -0.0303687 
88 1 53.4297 -11.985 1.65638 0.0126155 -0.0115051 0.00617892 
29 2 37.1272 7.54542 2.98514 -0.0339257 0.0804441 -0.0219889 
424 2 45.3272 4.41846 5.73957 0.0283001 -0.0293744 -0.066401 
409 1 44.8295 5.49108 5.64862 -0.00126004 -0.0018375 0.00433401 
411 1 45.2663 6.40382 6.66284 -0.0125009 0.0257731 0.00473856 
423 2 43.7304 5.1143 5.48113 0.0457337 -0.0328117 0.0789996 
422 2 38.3955 6.93604 1.71185 0.0699265 -0.0659137 -0.02584 
14 1 38.2723 7.68189 2.7664 -0.00348642 -0.00355278 0.0069606 
403 1 38.1519 8.80703 5.21634 0.0416608 0.00741571 0.0244963 
413 1 39.662 8.24399 4.97662 0.00489993 0.00068873 0.00238526 
397 1 40.8344 8.34608 5.85616 -0.0144454 -0.0140321 -0.0151092 
410 1 39.1416 7.86229 3.74172 -0.0145383 0.0116164 -0.0137928 
417 1 38.1767 10.3863 5.2957 -0.0168407 0.00888768 -0.0139506 
429 2 37.3088 8.28444 4.88001 0.00200255 0.0483532 0.0386914 
70 2 37.1095 10.8393 5.38677 -0.00225953 -0.0458441 0.0372421 
17 1 42.2754 8.04916 5.37375 0.0535337 -0.00517471 -0.0114261 
404 1 44.4084 7.68362 6.85381 -0.0032682 0.00686434 -0.000167344 
400 1 43.3803 7.33105 9.03598 -0.00389413 0.00646942 -0.0190228 
466 2 36.5833 -7.9663 -5.16863 -0.0330025 0.0658259 0.00802545 
320 2 42.2956 0.118628 10.8098 0.00479493 -0.0108141 0.0780067 
323 2 43.3594 -1.34319 10.0101 0.0529515 0.10765 0.0901776 
294 1 43.0844 -0.665064 10.9273 0.0103237 0.0106553 -0.00630042 
425 2 45.1647 7.31114 9.80475 0.0228008 0.0215384 0.14372 
430 2 38.0246 10.7657 9.92853 -0.0907072 0.0424314 0.0238216 
398 1 43.0557 8.27288 6.63018 -0.00877766 -0.00446758 0.0157211 
298 1 45.9104 -1.46827 11.9643 0.0122384 -0.0199328 0.00745175 
308 1 45.8471 -0.603531 10.9207 0.00524509 -0.0368668 0.0106638 
416 1 44.5364 10.8208 7.41548 -0.00818648 0.0195039 -0.000413365 
324 2 44.6855 1.99772 8.25019 -0.0448032 -0.0349577 -0.00258448 
311 1 45.3893 0.405128 10.2456 0.0104777 -0.0131615 0.00330551 
312 1 44.9923 1.51463 9.42067 -0.00835061 -0.00571784 0.00965134 
402 1 44.1327 7.55163 10.2226 -0.0039807 -0.0226274 0.0112108 
407 1 39.3958 10.9866 6.00288 0.00930031 0.0117132 -0.0140475 
420 1 38.1857 9.86858 9.46287 -0.0181639 -0.0353391 0.0103394 
405 1 38.9448 10.1769 8.28869 0.0167702 -0.0235714 0.011075 
414 1 39.8026 10.3115 7.24315 0.028012 -0.000960617 0.0330995 
399 1 40.9661 9.176 7.04634 -0.00472272 0.00224657 -0.00823167 
408 1 40.6537 8.4868 9.64903 -0.00309549 0.00801421 -3.27501e-05 
415 1 42.4679 7.8826 7.94218 0.0200717 0.0267077 0.0239277 
401 1 41.1418 8.3994 8.25658 -0.0138268 -0.0192607 0.0189204 
418 1 39.3968 9.28306 10.2158 -0.00556928 -0.00484505 -0.00200614 
250 2 39.3622 9.2699 11.4412 -0.0431094 0.0011817 -0.00521258 
427 2 46.6447 8.53785 7.11099 0.0556869 0.0683465 -0.0820591 
406 1 45.6178 9.94238 7.52307 0.015738 0.00634194 0.00342996 
428 2 46.6945 10.578 7.46991 -0.013422 0.0827647 -0.0315369 
412 1 45.3243 8.58226 6.95132 0.0208948 0.0189091 0.000566044 
419 1 43.4247 11.5078 7.20264 0.00981641 -0.0180498 -0.00403488 
426 2 43.9763 7.57275 11.2055 0.0633417 0.0838907 0.010822 
136 2 40.1951 11.5629 5.46651 0.0311895 -0.107501 -0.0112912 
319 2 47.7308 -1.61298 11.7294 0.0509898 0.133853 0.139657 
309 1 40.9165 -7.15679 15.6466 0.00098497 0.0119244 -0.00802248 
317 2 40.2641 -7.81558 15.089 0.0513584 0.0619977 -0.073662 
291 1 42.2662 -6.77543 15.3058 0.0194047 0.0350896 0.0047545 
310 1 43.1219 -8.07667 15.0724 0.00978376 0.0108875 -0.0126982 
306 1 43.8747 -8.78209 14.6931 0.00340885 -0.00798481 -0.0312813 
322 2 43.6942 -9.87019 15.1199 0.0776637 0.0416277 -0.0419589 
305 1 41.1589 -4.92368 15.5736 0.0211579 0.0251299 0.0157605 
35 2 40.7188 -4.03466 15.8808 -0.0874559 -0.0818642 -0.0176917 
297 1 40.1698 -5.84826 15.8595 0.020594 0.00264664 0.000340627 
302 1 42.446 -5.37893 15.088 0.0214091 -0.0203746 -0.0220412 
316 2 42.446 -3.16971 14.2746 0.0145662 -0.0342779 0.0593247 
293 1 42.5851 -0.0916364 13.0856 0.0128618 0.0250601 -0.00203216 
315 2 44.8967 -6.09062 15.3343 -0.0539985 0.0172474 -0.0576347 
313 2 47.0749 -4.97441 15.1585 -0.0543776 0.0374294 -0.00703688 
301 1 44.9678 -5.13547 14.7382 0.0163727 0.00834213 -0.00764423 
303 1 46.0888 -4.49366 14.5658 0.0292246 0.0187522 -0.00129719 
295 1 43.5841 -4.77015 14.4325 0.00851228 -0.00361266 -0.0125283 
289 1 43.6363 -3.41078 14.2934 0.00717592 -0.04132 -0.00595465 
290 1 44.7808 -2.56402 13.8521 -0.00525752 -0.00718423 0.00209352 
296 1 46.0631 -3.16848 13.9616 -0.00961299 0.0026109 0.0106244 
292 1 44.7896 -1.67451 12.6006 -0.00845033 0.00918948 -0.0147528 
300 1 43.5339 -0.650919 12.0821 0.00465669 0.000786111 0.00763869 
146 1 59.3741 -2.35714 16.4664 -0.00327732 -0.0402418 -0.0147145 
151 1 58.0284 -3.56868 14.6352 -0.0144876 0.0218193 0.0227543 
171 2 56.5429 -2.12646 13.4307 0.00604145 -0.00994497 -0.00371773 
169 2 57.8483 -0.104988 15.0872 0.0396129 -0.027199 -0.0383026 
159 1 57.5329 -1.38739 15.1915 -0.0148771 0.0145989 0.00170172 
157 1 57.1916 -2.41647 14.3596 0.0190579 0.00812437 0.0315354 
152 1 58.3421 -1.30086 16.3846 0.0312705 0.00930099 0.00144897 
158 1 58.0218 -4.71656 13.6295 -0.0142494 0.0310093 0.00380157 
145 1 59.2375 -3.43737 15.3305 -0.00318784 -0.0237748 -0.0220046 
160 1 58.4767 -0.786958 17.8495 0.0285847 -0.00709928 -0.00315592 
161 1 58.9958 -5.46499 12.8762 0.0115778 -0.0147043 -0.00398149 
170 2 50.5238 -9.71868 26.1403 0.0293384 -0.0165752 -0.0485927 
245 2 47.5141 -1.92849 15.0158 -0.0644607 -0.00422614 0.122858 
321 2 41.6207 0.21561 13.8494 -0.0163383 -0.0324921 -0.0185512 
163 1 57.8241 0.0432993 18.5463 -0.0199746 0.0353422 -0.011131 
299 1 57.0695 1.09594 19.3138 0.0155266 -0.0165778 -0.013607 
172 2 56.547 1.65644 18.3829 -0.0547882 0.0168424 -0.0224679 
98 2 50.8521 1.84623 20.8161 0.0327768 0.00817288 -0.0153553 
178 2 56.226 0.736047 19.9751 0.0233018 0.0338212 -0.116659 
64 2 51.3836 -8.97008 25.8646 0.073097 -0.0288934 0.0306443 
304 1 47.378 -2.45716 14.0742 0.00226283 0.0266344 0.0123595 
173 2 59.3478 -5.93871 11.9737 -0.0575591 0.0180331 -0.00182776 
307 1 47.1983 -1.75874 12.8221 0.00681411 -0.00140629 0.0123056 
47 1 50.3996 18.8103 -10.3813 0.0244076 0.00989304 -0.0216485 
95 1 54.1738 32.2469 4.25061 0.00319673 -0.0214337 0.00184609 
45 1 50.49 18.2912 -11.6129 -0.00136445 -0.00544948 0.00539466 
248 2 44.0774 22.7291 -8.01714 0.0483881 0.0458691 0.019005 
69 2 48.6649 24.0314 -9.18309 -0.0584548 -0.085937 -0.090732 
176 2 44.0985 23.6213 -8.42494 -0.00554066 -0.00108669 0.0192014 
66 2 49.3578 20.2449 -8.68931 0.00732582 -0.0875476 0.00705327 
60 1 48.5534 23.167 -9.99723 -0.0157365 0.0138393 -0.0106128 
54 1 48.0881 21.6747 -9.96445 0.00857551 -0.00970048 -0.0410574 
57 1 49.6826 19.8509 -9.60696 -0.0150023 0.00255505 -0.00218975 
58 1 48.8752 20.5598 -10.607 0.0112353 0.000348305 0.0115577 
41 1 48.7501 20.0538 -11.9315 0.0122502 -0.0011583 -0.000131277 
524 1 43.361 35.2099 -10.3885 -0.00175356 -0.00298478 0.00483534 
521 1 45.224 27.5375 -9.83842 -0.0216209 -0.0294691 0.0216374 
530 2 45.9978 26.5868 -9.55311 0.0428545 0.034653 0.0366153 
529 2 43.2181 29.0089 -5.98678 0.092578 -0.0107378 -0.0564772 
513 1 45.3736 28.2105 -11.064 0.0116551 0.0211255 0.0368008 
518 1 44.8725 28.364 -8.83234 0.00327997 0.0197472 -0.0379038 
511 1 43.9047 29.4527 -8.49814 -0.0123506 0.0047448 -0.000950706 
517 1 43.2436 29.5263 -7.06641 0.00875157 0.00884193 -0.00890202 
48 1 48.4796 23.1929 -11.4934 0.00421653 -0.0190018 0.00398585 
527 1 43.9326 35.5158 -11.6344 -0.0204464 0.025879 -0.0180097 
505 1 44.2402 30.7797 -9.23214 0.000465436 0.00294672 0.0189485 
507 1 44.9602 30.5729 -10.4764 -0.00647784 -0.0144298 0.0161164 
522 1 45.2955 29.5861 -11.6324 -0.00318847 -0.0158227 -0.0113403 
506 1 43.5248 31.8852 -8.65046 -0.00620493 -0.0188773 -0.00346765 
509 1 44.8085 31.7067 -11.406 -0.0128327 -0.0478374 6.06093e-05 
508 1 44.0351 33.1417 -9.48928 -0.0110046 0.0139118 -0.00190486 
510 1 44.5392 32.9918 -10.7507 0.00793192 -0.0106337 -0.0121647 
514 1 43.6889 34.534 -9.04437 0.0140553 0.00553059 -0.000265636 
512 1 43.1057 31.9063 -7.28575 -0.00264605 -0.0305002 -0.0299826 
523 1 42.8836 34.6245 -7.87503 2.83284e-05 -0.00623894 0.0110803 
516 1 44.9125 34.1122 -11.8444 0.00254458 0.0130663 0.0145772 
519 1 42.9751 30.7516 -6.50757 0.0115191 0.00217314 -0.0166379 
520 1 42.4772 33.4257 -7.11199 -0.0117573 -0.0204849 -0.014825 
536 2 42.658 35.649 -7.62987 -0.0481507 0.0442394 -0.047512 
89 1 51.5447 29.1569 -2.13892 0.0191502 -0.00444368 -0.0250365 
81 1 51.9342 28.7411 -0.686275 -0.00832443 -0.00355644 0.0121227 
431 2 42.7464 12.2664 7.43186 0.0122731 -0.0474496 -0.00765912 
531 2 42.488 31.0182 -5.53437 0.0279209 -0.0281584 0.0350772 
535 2 41.4022 32.9973 -6.86747 0.113906 -0.0565058 -0.0523385 
79 1 51.8632 31.525 -1.96511 0.00648117 -0.00651664 0.016501 
355 2 52.7684 33.6404 -0.225132 -0.0232935 0.0628311 -0.00205977 
86 1 51.1276 30.4779 -2.38473 -0.00526581 0.0109633 0.00641152 
97 2 51.3982 32.5751 -2.11541 -0.00225634 -0.0627255 -0.0571455 
73 1 52.2616 31.4934 -0.46636 0.0130704 0.025599 0.0192914 
74 1 52.8374 32.6377 -0.0328207 0.0278731 0.0022182 -0.00775475 
101 2 51.0762 26.6417 0.464907 0.0715565 -0.0250129 0.0156834 
90 1 51.7329 27.6357 0.126601 0.0154799 -0.00256025 -0.00649938 
93 1 52.0527 28.0276 1.60436 -0.0324519 0.021438 -0.0101863 
83 1 51.9831 29.3825 2.19394 0.0110012 -0.0218792 0.0135465 
102 2 51.2075 28.9283 4.55981 0.0978824 -0.0771843 0.0537469 
94 1 51.938 29.3519 3.86698 -0.00487258 -0.008846 0.0105152 
75 1 52.0751 30.0847 0.0182165 -0.0323096 0.0162814 0.0329393 
76 1 52.9718 32.7678 1.5525 0.00314724 0.0165169 0.0085574 
77 1 52.3125 30.317 1.26794 -0.0228291 0.00187044 -0.0159462 
91 1 53.3202 35.0428 2.28638 -0.00237523 -0.0118856 -0.0215882 
96 1 53.1654 29.9288 4.152 -0.00522062 -0.0152159 -0.012558 
82 1 53.9212 33.8706 1.96803 -0.00395735 -0.00326456 -0.0193657 
78 1 52.6443 31.596 2.17729 0.00409023 -0.0101748 0.00235539 
106 2 53.6579 29.4693 5.21707 -0.0602299 0.117765 0.0645863 
84 1 53.3765 31.3026 3.49196 -0.0230355 -0.0110956 0.0147381 
107 2 54.6858 32.121 5.13586 -0.041871 -0.0261441 -0.0264944 
92 1 54.5302 33.1499 3.20067 -0.0302995 0.0109843 -0.00788962 
533 2 45.8636 27.2814 -11.5199 -0.0501135 -0.0230869 -0.0504736 
65 2 51.102 17.4348 -11.275 0.0432704 0.0117682 0.083653 
53 1 50.4242 15.7867 34.3494 0.00390947 0.0152752 -0.00588832 
62 2 49.991 14.9202 35.2008 -0.00994875 0.0728454 0.0238376 
50 1 50.8819 16.3315 33.2783 -0.00317495 -0.0196149 0.014558 
61 2 51.3153 15.9786 32.3281 0.0820712 0.00318858 0.0744792 
43 1 50.037 17.7525 33.2979 -0.0353758 0.000377917 0.0131572 
213 2 60.0741 17.0856 31.598 -0.0463549 -0.0870038 -0.0110259 
538 2 46.8961 32.2706 34.0089 0.0237602 -0.0546103 -0.0593965 
526 1 46.276 32.6814 34.8025 0.0201451 -0.0187989 0.0148163 
67 2 49.3021 23.7891 30.8405 0.0524651 -0.043864 -0.017319 
55 1 49.0056 23.0104 31.593 0.00366102 -0.00845152 0.0290543 
63 2 49.58 20.3316 29.9528 -0.0264991 -0.0424493 0.00154309 
56 1 48.2746 22.5341 35.3625 -0.0104606 0.0190133 0.00957943 
37 1 49.4313 18.8307 34.2492 0.0119348 0.0162702 -0.0117454 
39 1 49.2955 18.7143 35.5949 0.0297286 -0.00799435 -0.0162665 
49 1 50.2924 18.2209 31.9718 0.00615526 0.00891901 -0.00881307 
46 1 48.9971 22.5856 33.1215 0.0146289 0.0120432 0.0160122 
44 1 49.5805 19.6449 31.8455 -0.0371839 -0.000680049 0.00990722 
38 1 49.3527 19.9681 33.2577 -0.0072303 -0.0282367 0.000671061 
42 1 48.4696 21.1516 35.1529 -0.0184922 0.00763166 0.00569592 
51 1 48.9476 20.3883 30.8564 0.0120752 0.00265701 -0.00447934 
52 1 49.0042 21.8546 31.0538 0.00990302 0.00793856 0.0161454 
40 1 49.0995 21.1866 33.8952 0.00596175 -0.0155915 -0.00678532 
59 1 47.9802 23.2472 33.7801 -0.00363271 -0.00223727 -0.00898761 
202 1 59.1092 20.8019 32.6691 -3.95382e-05 -0.017281 0.00287195 
525 1 46.2447 30.2266 35.4301 -0.0155028 0.0271117 0.00103815 
212 2 58.0095 20.8723 34.5813 -0.0300473 -0.123676 -0.0394906 
204 1 58.1982 20.7136 33.5749 0.00240319 -0.00216763 0.00360234 
534 2 47.0732 29.5607 35.3729 0.0044267 0.00115502 -0.00440266 
72 2 47.7 24.1315 33.8287 -0.088483 0.050384 -0.0528056 
515 1 45.9626 31.5851 35.7866 0.00424805 -0.019851 -0.0053783 
528 1 45.4238 33.7582 34.7461 -0.0101394 -0.0106044 -0.0460364 
566 2 69.8662 1.74235 -9.0184 0.141165 -0.0472007 -0.04808 
549 1 70.0296 2.45156 -9.79063 0.000783729 0.000309076 -0.0038754 
557 1 69.8348 2.12241 -10.8645 -0.00369601 0.0198388 -0.0115764 
569 2 74.3574 7.69357 -9.82817 0.0798378 0.00156614 -0.0216123 
544 1 73.0233 5.4668 -7.51529 0.00871629 0.0172883 0.015028 
546 1 74.1267 5.82932 -8.24664 0.00600122 0.0254714 0.0158957 
561 1 74.3529 6.71426 -9.5947 -0.0183903 0.0226916 0.0241041 
558 1 73.9323 5.84773 -10.572 -0.0331436 0.0123063 0.0338612 
552 1 71.3316 7.22264 -11.5892 0.0117454 0.00514563 0.0154837 
562 1 72.0514 5.51828 -6.5443 0.0116506 -0.0293677 0.00770372 
576 2 71.4353 4.63473 -6.40465 0.0024346 -0.0918313 0.0337561 
352 2 72.055 -4.49715 0.230355 0.067114 0.0614271 0.062561 
574 2 71.09 -4.52829 0.519967 0.0338686 0.0147442 -0.00041598 
545 1 74.0292 5.63102 -3.21704 0.0174792 0.0264896 -0.0020815 
573 2 74.0204 5.20962 -2.20053 -0.0419286 0.057531 -0.0333085 
282 2 68.8446 7.89135 -5.72302 -0.0217675 -0.000350347 -0.0374621 
135 2 68.2755 7.8104 -5.46098 0.0696142 0.0430425 0.0362786 
551 1 73.3567 5.96388 -4.17839 0.00903277 0.0183763 -0.0111702 
564 1 72.8102 6.65453 -5.48443 0.000376137 0.00531142 -0.00519088 
421 2 72.2448 7.45837 -5.3014 0.00882737 0.0187127 -0.0111948 
563 1 70.7149 8.39378 -11.1951 0.00267391 -0.0306681 0.0291555 
177 2 70.3893 8.58593 -10.251 0.0130575 0.0151382 -0.0632812 
27 2 67.0255 -4.3336 10.6694 -0.049166 0.037584 0.0525649 
25 2 69.1736 -4.34961 9.63664 -0.014181 -0.0797124 -0.0356778 
8 1 68.9728 -4.19213 10.6607 -0.0343109 -0.00849384 0.00695209 
1 1 70.0522 -4.23695 11.7127 -0.0053585 0.00716884 0.0154448 
7 1 67.9188 -4.44405 11.3118 -0.00800708 0.0126552 0.0454516 
28 2 71.6897 -4.59351 9.95646 -0.0432688 0.00403603 0.0669785 
19 1 72.5532 -3.88147 11.8546 -0.0186725 -0.0221512 -0.00665777 
16 1 71.4886 -4.23995 10.99 -0.0263885 -0.00936585 0.0132139 
31 2 73.3212 -3.77689 10.981 0.0716607 0.0296531 -0.118289 
210 2 70.6244 9.69411 1.13476 0.00856722 0.0705087 -0.0933549 
284 2 71.0634 9.66047 0.52312 -0.00338209 0.000375285 -0.101893 
543 1 73.3442 5.37338 -11.7721 -0.00856526 -0.00944642 -0.00666013 
476 1 64.2407 -5.84983 15.757 -0.00667629 0.00981405 -0.00576527 
470 1 64.8435 -6.96365 16.4308 -0.0162153 -0.00249479 0.0044999 
472 1 64.2122 -7.62158 17.4393 0.0176726 0.00804346 -0.00052365 
501 2 68.5274 -6.50167 13.9639 -0.0532229 -0.0260874 -0.0262916 
477 1 68.04 -7.0812 14.6494 0.0215983 0.0134039 -0.0213973 
471 1 66.5702 -6.94592 14.6519 0.0168266 0.0182857 -0.00480381 
488 1 68.5392 -7.75225 15.7004 -0.0182042 -0.00803781 -0.000561985 
479 1 66.021 -7.32877 15.9557 -0.00990164 -0.00254754 0.0177036 
474 1 66.4703 -8.16928 16.915 0.000711864 0.0130812 0.00966339 
491 1 68.0121 -8.29816 16.7021 -0.00873246 0.0136025 -0.0269128 
500 2 68.6667 -8.8451 17.0402 -0.0769321 -0.00485595 0.0559421 
481 1 64.6803 -5.74119 14.3361 -0.0268685 -0.0220776 -0.00828188 
554 1 69.5189 2.13355 35.771 -0.00988485 0.0138904 0.00197359 
149 1 61.0512 -4.23484 16.0172 0.0372267 -0.00895596 -0.00207502 
153 1 60.2252 -4.93628 13.6004 -0.0307448 -0.0227088 -9.99765e-06 
162 1 61.597 -5.36859 13.3338 -0.0086733 -0.00126832 -0.00919961 
155 1 62.1328 -5.00787 15.5216 -0.00420986 -0.0144182 -0.0167125 
150 1 61.0856 -3.42031 17.2203 -0.00313755 -0.0275674 -0.0181561 
174 2 62.0265 -5.51739 12.0644 0.0435248 0.0504794 -0.0391426 
165 1 62.4525 -4.69401 14.23 -0.0124493 -0.0308126 -0.0280352 
484 1 62.8606 -5.92925 16.1756 0.0172359 0.0148205 -0.021197 
483 1 63.6752 -5.12812 13.5463 -0.0237123 0.00226997 -0.0129178 
493 2 63.9996 -4.86935 12.5072 0.014234 -0.0375597 0.021548 
148 1 60.4399 -2.07521 17.3272 -0.0122207 0.0163624 0.0164033 
175 2 61.9313 -3.82837 18.1185 -0.0575425 -0.0334365 -0.0962146 
469 1 66.0803 -5.93241 14.141 0.0164235 0.00293188 0.000404644 
13 1 66.9123 -5.0374 13.3393 0.00274032 0.01858 0.00160547 
11 1 69.9794 -1.41178 16.5175 -0.0229628 -0.0119349 -0.012166 
5 1 70.1955 -2.13733 15.1057 0.0052175 -0.00215733 -0.00275846 