ITEM: TIMESTEP
880000
ITEM: NUMBER OF ATOMS
576
ITEM: BOX BOUNDS pp pp pp
-1.2000000000000000e+01 8.4000000000000000e+01
-1.2000000000000000e+01 3.6000000000000000e+01
-1.2000000000000000e+01 3.6000000000000000e+01
ITEM: ATOMS id type x y z vx vy vz 
92 1 10.7713 -2.99443 -11.77 0.0100484 0.006187 0.00596453 
91 1 8.49973 -3.51553 -11.3702 0.000865293 0.0155063 -0.007568 
88 1 8.26368 -4.71604 -10.6621 -0.0182036 0.00953282 -0.0121837 
104 2 10.9292 -3.94734 -11.625 -0.0175499 0.104608 -0.0098904 
103 2 8.23378 -5.65952 -10.9564 -0.0498411 -0.0277933 -0.0412217 
98 2 8.29104 -1.52359 11.4618 -0.0264086 0.0206654 -0.0467316 
497 2 -6.67571 4.29971 0.221033 -0.0796024 0.104667 0.0553154 
457 2 11.7654 -0.0479969 -1.11161 0.131712 0.0169285 0.061175 
447 1 10.8995 0.830915 -0.896162 -0.0116217 -0.0257277 -0.014196 
460 2 8.79404 0.515814 -3.60934 -0.0498108 0.0274012 0.055029 
434 1 9.7518 2.70979 -1.73927 0.0187318 0.00636617 -0.0252896 
440 1 10.2607 1.41543 -2.06907 -0.00805728 0.00624904 -0.00191591 
463 2 8.44124 2.64749 -4.95614 0.0639544 -0.0482342 0.0346945 
451 1 8.77557 2.36353 -4.0095 0.00264685 -0.00851834 -0.022452 
448 1 9.42228 1.25906 -3.27273 0.0185063 0.0020407 0.00253001 
442 1 9.57651 3.6556 -3.97504 0.0151653 -0.0333127 -0.0148679 
436 1 10.0449 3.75016 -2.53764 -0.0146375 0.00872577 -0.0122094 
452 1 9.8815 4.81926 -4.98248 -0.00646426 -0.0184415 0.025916 
438 1 9.72239 5.01696 -2.12764 0.0286482 0.021612 0.0152131 
437 1 9.80981 5.46574 -0.850215 -0.0256146 0.00581482 0.00731629 
433 1 9.62021 2.98222 -0.405619 0.0140546 0.0109631 -0.0164284 
455 1 10.6632 5.83841 -4.28741 0.00224728 0.00715531 0.00844109 
467 2 10.9016 6.62744 -5.04878 0.104475 0.0704635 0.0256178 
444 1 9.88565 6.10419 -2.93564 -0.00434887 -0.00819744 -0.00819504 
468 2 10.3397 8.36674 -2.92035 0.0465403 0.0598483 0.00240265 
456 1 10.0719 7.31679 -2.41037 0.00335778 -0.00480071 -0.022064 
454 1 9.75213 6.98433 -0.877526 0.00359697 -0.00797108 0.0125003 
459 2 10.9377 0.564044 1.24375 -0.00115606 0.103118 0.0303503 
445 1 10.5888 1.12586 0.354117 0.0172278 -0.0196012 -0.00712241 
461 2 8.87228 3.93303 3.57445 0.0478232 0.0165485 -0.048714 
449 1 8.92965 3.47901 2.58534 0.0139004 0.0100209 -0.0146775 
441 1 9.10974 4.32638 1.48151 -0.0123718 0.0141511 -0.0156398 
458 2 9.9228 1.79766 3.00948 0.0700073 0.0983018 0.00192165 
446 1 9.60053 2.33598 2.14897 0.000363049 0.0167634 -0.00354161 
439 1 9.76571 2.13969 0.721492 0.00949981 -0.0144186 0.0348871 
435 1 9.65259 4.38602 0.117002 -0.00533629 0.0133235 0.00515629 
453 1 7.15674 7.28017 -0.691295 -0.00136501 -0.00603653 -0.0228447 
465 2 8.60986 8.714 -1.05355 0.0418745 -0.0821462 0.0489592 
443 1 8.44742 7.67338 -1.06942 0.00418124 -0.0127291 -0.0118282 
450 1 6.50253 7.55521 0.350638 0.00313778 -0.0271175 0.0144015 
462 2 5.51772 7.19082 0.852851 0.0429289 -0.135575 -0.0195132 
95 1 11.881 -2.08793 -11.9482 0.0089178 -0.0206425 -0.00176102 
272 1 -7.52787 -11.5276 16.9372 -0.00888967 -0.00592531 0.00135634 
355 2 6.82827 -0.144561 35.2902 0.0817814 -0.00603601 0.129158 
264 1 -6.92831 -11.5695 19.2752 -0.0127507 -0.0241886 -0.0105626 
274 1 -6.5541 -11.415 21.8636 -0.00434077 0.0153757 0.00784781 
276 1 -6.31135 -11.1411 20.5144 0.0141076 0.00448237 0.000586574 
79 1 6.83664 0.941751 33.4448 -0.0132108 -0.0190184 0.010152 
288 2 -5.18695 -11.0939 20.8358 -0.0214653 -0.0460283 0.00474455 
77 1 10.5902 0.731306 34.1294 -0.0113639 0.0109328 0.0213808 
275 1 -6.91484 -11.0617 17.9476 0.00426071 0.0150123 0.00127372 
286 2 -5.88032 -10.7454 22.5754 -0.130593 -0.0606209 -0.0715549 
73 1 8.0199 0.898023 34.1196 -0.041419 -0.0160449 -0.000757872 
84 1 11.3858 -1.30926 35.0264 -0.00368947 0.00293988 0.0247936 
540 2 5.3907 1.92125 29.8332 0.046777 0.0497087 0.00485981 
537 2 4.85572 1.67881 30.2567 0.0636325 -0.017552 0.0360455 
83 1 11.7398 1.02419 33.4023 -0.0161071 0.0146807 0.00245316 
78 1 10.2295 -0.471807 34.931 -0.017597 -0.0164282 0.00251116 
76 1 9.04025 -1.30902 35.3174 0.0153206 -0.0128138 -0.00836038 
74 1 7.99734 -0.179411 35.273 0.00441787 -0.0137615 -0.0147616 
101 2 5.80333 2.125 31.7372 0.0961347 0.000776363 -0.00268171 
97 2 6.08573 0.128179 33.7201 -0.0341746 0.00657706 -0.062416 
86 1 6.69546 1.85904 32.1891 0.0220801 0.000819828 0.00854768 
81 1 9.3515 2.09472 32.1614 -0.0176016 0.00312559 -0.000452573 
75 1 9.33228 1.4151 33.5836 0.00305454 -0.0138736 0.0103554 
89 1 7.92292 2.22847 31.5541 0.00105626 0.0142413 -0.010588 
90 1 10.7119 2.4041 31.3859 0.0105588 -0.0070758 -0.0148131 
93 1 11.4168 2.32198 32.666 0.0251916 -0.0241418 -0.00340485 
82 1 9.42409 -2.47594 35.978 -0.0132051 -0.025482 -0.00611962 
553 1 8.42806 28.1116 -11.0251 -0.0157211 0.0121572 0.00715474 
565 2 7.50906 27.7699 -10.2497 0.0219876 0.116994 -0.0101799 
567 2 10.3646 26.8725 -10.2111 0.0666235 -0.004073 -0.0191985 
548 1 9.82511 27.8798 -10.5844 -0.0165397 -0.0302741 9.89962e-05 
386 2 -11.2727 27.5126 5.58075 -0.0438602 0.0551295 0.0380475 
362 1 -11.7449 30.3991 9.42585 -0.00173932 -0.00846191 0.0183165 
555 1 10.9994 28.6569 -11.0965 -0.0123098 -0.00491053 -0.013337 
573 2 11.0537 34.5533 -11.9879 -0.0546662 -0.0540199 -0.0604533 
542 1 10.9786 30.0209 -11.1758 0.00050779 0.0220166 0.0157801 
432 2 -4.40388 25.142 -9.35992 -0.0595763 -0.0976289 0.00589124 
368 1 -10.3164 31.0287 9.43448 -0.00876245 -0.0164085 0.00163047 
547 1 8.46254 29.3795 -11.7658 0.0319775 -0.0198594 0.00132725 
105 2 -5.41371 33.3456 -2.93038 -0.0118149 0.0520035 -0.0923091 
466 2 -5.99311 32.9655 -2.39003 0.0762309 0.0117588 0.0271754 
375 1 -9.42831 30.1101 8.47705 0.000771758 0.0180527 0.01043 
376 1 -9.85675 30.58 10.7855 0.0135448 -0.0121353 -0.00264441 
367 1 -11.4062 28.8043 7.47316 0.0100057 0.011774 -0.00435202 
387 2 -9.32508 28.3874 6.97788 -0.0252541 0.0990921 0.0687576 
373 1 -9.83642 29.0855 7.73385 -0.0284986 0.00854669 0.0122436 
388 2 -8.56426 30.8357 8.86862 0.0653559 0.0173236 -0.0283367 
374 1 -11.8109 27.9048 6.45555 -0.0170313 -0.000334767 -0.0215715 
541 1 9.72236 30.3197 -11.9471 -0.0253353 -0.00861778 0.012513 
544 1 12.0102 31.1407 -10.9952 0.0156338 -0.0139555 0.00480115 
379 1 -10.7335 30.834 11.988 -0.013897 -0.00672139 -0.00656607 
267 1 -11.3639 32.28 17.4254 0.0133398 0.0258188 -0.000160477 
248 2 -4.27796 12.2645 25.2762 -0.0374607 0.048137 0.0296257 
260 1 -10.4539 33.4562 17.6665 -0.00903937 0.00226204 -0.00113023 
268 1 -10.0444 33.8968 16.4027 -0.0126926 -0.0112588 0.00124231 
271 1 -9.31521 34.7512 15.8438 -0.0156896 0.0488579 -0.0478378 
280 2 -8.98261 35.4424 14.998 -0.00201632 -0.00338029 -0.0251615 
262 1 -8.30068 35.2941 17.0192 -0.0108903 -0.00510649 -0.00787825 
311 1 -11.7509 23.4537 21.5976 -0.0230122 0.000810164 -0.0144648 
312 1 -10.666 22.5974 21.2384 0.00422647 -0.014406 0.00155674 
324 2 -10.0191 21.7763 21.5848 0.016703 0.0119888 0.0464909 
285 2 -10.5288 35.6926 23.6789 -0.0211559 -0.068627 -0.060842 
257 1 -8.64048 35.3534 20.803 0.00523949 -0.00652879 -0.014261 
256 1 -8.77498 34.8269 18.4001 0.00453701 -0.024291 0.0342424 
255 1 -9.70679 34.3153 21.0079 -0.0170757 -0.0110517 -0.00467944 
253 1 -10.1683 33.6995 19.8057 0.000979333 0.0113574 0.00795024 
254 1 -9.52432 33.7495 18.6741 -0.00910443 0.00665905 0.0207443 
261 1 -10.3924 34.1804 22.4723 0.024259 -0.0194862 0.01065 
259 1 -11.3162 32.6637 19.7277 -0.0101731 0.00346399 0.0136504 
265 1 -11.785 31.9866 18.746 -0.00244408 0.0166848 0.0173546 
554 1 6.79231 31.1828 35.0681 -0.00519828 0.00585701 0.0165002 
270 1 -9.76632 34.9764 23.5248 0.00535381 0.00225335 -0.0116146 
269 1 -11.5471 33.2622 22.0559 -0.0105163 0.0099788 0.0145565 
258 1 -7.92366 35.421 19.5259 0.00276647 -0.00748417 -0.0340136 
391 2 -10.2115 30.9341 12.9605 -0.0135534 -0.046019 0.0561255 
176 2 -4.2043 12.2235 26.2424 0.0174238 0.00294826 0.0620791 
574 2 11.1571 14.0248 31.798 -0.0270973 0.1961 -0.0301822 
242 2 -0.626151 33.4981 23.2896 0.0783704 0.0844854 -0.00160642 
532 2 -10.185 26.498 22.8089 -0.06154 -0.0504812 0.00507864 
229 1 0.459021 32.2832 25.5877 0.0181739 0.0188871 0.0281414 
217 1 2.64826 32.9811 24.1147 -0.0101646 0.0295117 0.000897177 
223 1 1.0805 33.0079 24.3632 0.0091019 -0.00603316 -0.00656894 
230 1 0.45126 33.4499 23.2473 -0.0165881 0.0134153 0.0116169 
221 1 4.89856 33.672 22.6098 0.0102989 0.00760374 2.56297e-05 
219 1 3.39157 33.2514 22.7281 -0.0220702 -0.00251146 2.33721e-05 
245 2 0.574105 33.8693 21.0955 -0.0362794 0.0111823 0.127009 
233 1 1.08233 33.8734 22.0309 -0.0140873 0.0207859 -0.0134727 
225 1 2.40184 33.747 21.7821 -0.00909192 -0.00834852 0.0143476 
234 1 2.80355 34.2555 20.4737 0.0017064 0.0170047 -0.0232658 
246 2 2.31141 34.7554 19.61 0.0041289 0.0154913 0.0217778 
237 1 4.29177 34.2542 20.4016 -0.0186871 0.00492612 0.00219325 
222 1 5.58572 32.9409 23.8214 0.00949846 0.0186375 -0.00403696 
249 2 4.6411 35.2103 19.7749 0.0475832 -0.0116236 0.0300486 
227 1 5.46074 34.0987 21.4233 -0.00462315 -0.00997648 -0.00173748 
357 2 7.11775 34.6516 20.2631 -0.00307528 -0.0337285 0.0698018 
238 1 6.87753 34.0581 21.2563 -0.0268641 -0.0189609 -0.00942252 
240 1 7.78231 33.6764 22.3858 0.00202427 0.0223638 -0.0109172 
228 1 6.97941 32.7937 23.4585 -0.0134321 0.0117273 0.0143139 
252 2 8.86136 33.8743 22.29 0.00980074 0.0526062 -0.0259988 
243 2 1.08518 30.1107 24.9174 0.0290691 -0.0619303 0.00679304 
244 2 2.99822 29.5707 25.4403 -0.0194592 -0.068511 0.0166675 
232 1 3.57906 30.1545 26.2233 -0.0110846 0.00154737 0.0268422 
235 1 5.09642 30.1884 26.537 -0.00650539 0.00415945 -0.00403737 
247 2 4.91051 30.7142 27.6115 -0.0269889 -0.120216 0.0242692 
241 2 0.0546589 32.7413 26.2811 0.0349514 0.0543193 0.0573675 
231 1 1.29337 30.969 25.6907 0.0163775 -0.00447449 -0.00783595 
218 1 3.42402 32.2745 25.0698 0.00775118 0.03167 0.0041647 
224 1 2.66105 31.3668 25.9999 0.0107921 -0.000194493 0.0167024 
226 1 5.70592 31.134 25.5292 0.00778939 -0.0131184 0.0218291 
220 1 5.00797 32.1 24.8276 -0.00238168 0.0137764 -0.0136216 
251 2 8.04624 30.1177 25.0829 -0.0349501 0.0494268 -0.0331639 
239 1 7.17337 30.8633 25.0763 0.0159572 0.00202651 -0.00569601 
236 1 7.41285 31.7697 24.2956 0.0217067 0.00382397 -0.0175103 
543 1 10.048 31.3863 35.1596 0.0134639 0.0114139 -0.00376708 
566 2 5.77889 33.1978 34.6031 -0.0984249 -0.00206777 -0.0120701 
561 1 8.82988 33.8114 35.6033 -0.00364658 0.00647587 -0.0119068 
549 1 6.45706 32.6252 35.0011 -0.0113438 0.000841796 0.0318868 
558 1 7.71418 33.2582 35.6774 0.0089973 -0.012783 -0.00914126 
569 2 9.16036 31.8886 34.9283 0.0801916 0.119575 -0.0539189 
263 1 -7.66023 35.6378 21.9183 0.0289761 -0.0170946 -0.0366254 
273 1 -8.35785 35.2166 23.159 0.00312062 0.00138487 0.000463161 
545 1 10.6954 32.5077 35.7048 -0.00395707 -0.0150906 -0.00408444 
557 1 7.65171 30.2751 35.5214 0.00257414 -0.00925966 -0.0245408 
352 2 11.9661 14.2783 31.5782 0.0346796 -0.0502017 0.0509033 
551 1 10.2473 33.9039 35.6749 -0.0324431 0.00366379 -0.00574437 
575 2 -7.83322 35.4361 24.2038 0.000693532 -0.0989751 -0.07788 
107 2 12.9301 -2.49123 -11.5858 -0.0947605 -0.0328009 -0.0272909 
385 2 23.0718 7.9718 25.9272 -0.199411 0.0607182 -0.063887 
570 2 23.1951 7.27829 26.0141 0.0760882 0.0521897 0.0521669 
106 2 13.7261 -0.81782 34.706 -0.0262191 -0.0368956 -0.0308274 
94 1 12.9642 0.289135 33.3916 -0.000345684 -0.00168026 0.0115849 
102 2 13.6414 1.29867 33.2371 -0.0246741 -0.00619429 -0.00733615 
96 1 12.7607 -0.831956 34.361 -0.00585764 0.0276676 -0.000586733 
571 2 13.741 28.2679 -9.56774 0.0204146 -0.0159435 -0.00307275 
559 1 13.5387 28.8552 -10.5684 0.0203153 0.0228293 -0.0228972 
283 2 18.7411 22.2781 -9.40403 -0.0437339 -0.0405666 -0.0275777 
278 2 18.4648 22.8618 -9.88102 -0.113855 -0.0151768 -0.0304721 
546 1 11.9864 32.5809 -11.5302 -0.0117687 0.0165888 -0.00994316 
337 1 22.2064 18.2927 9.98645 -0.00733663 -0.00164016 -0.00946677 
563 1 14.7825 33.5398 -8.87776 0.00116779 -0.0080561 -0.00463096 
560 1 13.8539 31.6829 -9.88152 0.01932 -0.00719863 -0.00104073 
552 1 14.8342 32.2566 -8.87468 -0.00764418 -0.0108175 0.0155748 
550 1 13.348 30.5268 -10.5948 0.00517766 0.00360617 0.016391 
572 2 15.2033 31.5312 -8.02452 -0.0137159 -0.0960813 -0.0768566 
177 2 14.2924 34.314 -9.39006 -0.0424988 0.0146073 -0.0656191 
346 1 18.9308 17.642 3.37534 0.0406222 0.0149299 -0.00374295 
358 2 19.0736 17.3393 2.37447 -0.0397026 -0.0269188 -0.0306648 
216 2 20.8769 16.2061 2.89299 0.124408 0.0567201 -0.0828489 
345 1 20.7688 16.2791 4.16282 0.00787518 -0.00271208 -0.0191516 
335 1 19.5041 16.9428 4.52696 0.00648341 -0.00331661 -0.0106252 
354 2 21.9883 14.5265 4.69247 0.0641814 -0.0264012 0.0431376 
342 1 21.5487 15.4688 4.92972 -0.0130595 0.0137566 -0.00296383 
284 2 34.8346 17.6594 -9.04263 0.0292558 0.00907311 -0.13403 
210 2 34.3945 17.3498 -9.74189 -0.0148851 0.0901116 -0.128488 
347 1 17.5344 20.6562 5.12307 -0.0135368 -0.0135075 -0.00109648 
336 1 18.1113 19.2732 5.03097 0.0169194 -0.0123498 0.0213034 
359 2 17.2802 21.2675 4.18266 0.0581574 0.0444471 -0.0507214 
360 2 17.0741 19.0759 3.00971 0.05638 -0.0344897 0.0684329 
348 1 17.95 18.7858 3.65646 0.0154371 -0.0105533 -0.00102024 
356 2 18.3852 22.0454 6.68163 -0.0674167 0.0198336 0.0220888 
344 1 17.6219 21.1713 6.44227 -0.0189283 0.0137556 0.01923 
329 1 19.4719 17.4078 5.94892 -0.0111137 0.0102073 0.00548953 
330 1 18.7673 18.694 6.19037 -0.00801059 -0.00799102 -0.00442004 
333 1 21.8347 16.2915 6.1043 -0.00569252 0.00602279 -0.00788843 
353 2 24.0923 16.3285 6.2496 -0.0611794 -0.0183485 0.00494368 
350 2 24.103 16.7361 8.90832 -0.0125135 -0.0266153 -0.0212207 
341 1 23.1606 16.2263 6.77671 0.00982055 0.0115245 0.0242848 
338 1 23.245 16.6802 8.27525 -0.00104122 0.0110176 0.00753691 
327 1 20.7184 17.1246 6.55999 0.00142539 -0.0028177 -0.0132851 
331 1 22.0072 17.3192 8.65543 -0.00645893 -0.0100061 4.65994e-05 
349 2 23.2448 18.1909 10.5012 0.0633802 0.0540306 -0.0135806 
326 1 20.0716 18.9106 8.36982 -0.0105786 -0.0396144 -0.00822017 
351 2 21.2321 19.8319 11.3736 -0.0162996 -0.0487964 -0.0649838 
334 1 17.8534 20.174 7.55919 0.00673999 -0.017827 0.0197931 
343 1 17.8098 20.4141 9.02237 0.00777541 -0.0404288 -0.0208956 
325 1 21.029 17.7318 7.91626 0.00892075 0.0216602 0.0279338 
340 1 18.7642 20.1666 10.072 0.000369547 -0.0317678 0.00147721 
328 1 18.8363 19.1223 7.61156 0.00220605 0.0017658 0.00102694 
332 1 20.1483 19.4708 9.51492 -0.0111389 -0.0338922 -0.00350212 
339 1 21.1642 19.0519 10.5774 -0.00577556 -0.00252463 0.00261335 
568 2 12.7572 27.6714 -11.8064 0.0296798 0.0281187 -0.0657642 
556 1 12.3911 27.9505 -10.7444 0.00666407 -0.0138567 -0.0190432 
564 1 13.4559 32.9332 -11.9427 -0.0137538 0.00867867 0.00147402 
208 2 19.6947 17.5392 22.5788 -0.0489849 0.0653562 0.00898649 
194 1 23.0866 22.8672 22.5399 -0.00916661 0.00969792 0.00788055 
181 1 21.9711 21.2202 24.0958 -0.0327263 -0.00359614 -0.0102017 
205 2 21.7048 21.6284 20.8575 -0.0668863 -0.047837 0.100205 
182 1 21.0472 20.3694 24.0846 0.00768702 0.00178 -0.019743 
187 1 22.3093 21.6356 22.8216 0.0311604 -0.0140104 0.0207536 
188 1 20.6201 19.6065 23.1647 0.0171953 -0.00354618 -0.00982465 
195 1 20.3486 20.2433 21.8047 -0.0100172 -0.00535399 -0.0201689 
193 1 21.6661 21.0487 21.7067 -0.0160764 -0.00167131 -0.0186514 
207 2 19.4525 20.1055 21.107 -0.0261546 -0.0393467 0.0268519 
196 1 20.1649 18.1846 23.3423 0.00589664 -0.00294325 0.0096133 
197 1 23.2139 23.9285 23.3811 0.0156662 0.00702148 -0.0113099 
209 2 23.8695 24.8757 22.7223 0.0215044 0.0213131 0.0689817 
206 2 23.5423 22.9378 21.3004 0.0755402 -0.0920139 0.0151715 
211 2 19.7139 16.5518 24.8104 0.0895316 -0.0288883 -0.0674887 
199 1 20.2431 17.4397 24.5556 -0.0064183 -0.00448569 0.0201702 
215 2 20.9199 17.1864 27.0548 0.0593978 0.0703993 -0.00500636 
204 1 20.2023 17.5153 30.5476 0.017652 -0.00384964 0.00816298 
202 1 20.7726 18.1227 29.5774 0.0224003 0.00803672 0.00480842 
190 1 20.5661 18.4107 25.5067 -0.0184885 -0.025784 0.00484166 
200 1 21.0723 18.3745 26.8403 0.0244544 0.0243798 0.0135606 
184 1 20.7323 19.8911 25.464 -0.0231524 -0.00941304 0.021945 
192 1 21.1192 19.2914 29.0064 0.0236227 0.0290212 0.00206667 
203 1 21.2426 19.316 27.6412 0.000963671 -0.0050972 -0.00211056 
212 2 21.4818 20.0022 29.6362 -0.0368911 -0.0478914 -0.0399897 
186 1 21.383 20.4795 26.6322 0.0171739 -0.0178226 -0.020093 
213 2 23.0717 21.897 28.0625 -0.00375379 0.0313585 -0.110819 
183 1 21.9423 22.4255 24.9123 0.0297226 0.0126392 -0.0026281 
191 1 22.5651 22.5455 27.3909 0.0119157 -0.00709203 -0.00059776 
201 1 22.4853 24.049 27.3088 -0.0339944 0.00654381 0.0445048 
214 2 22.5774 24.8919 28.151 -0.0667464 0.0333802 0.0727107 
198 1 22.8194 24.45 25.9444 0.0117709 -0.00993501 0.00546556 
185 1 21.9739 21.8313 26.2347 0.00562003 0.00475847 -0.000167159 
189 1 22.6372 23.7315 24.7451 -0.0296729 0.00227914 0.00651377 
133 2 23.5248 25.0722 25.8555 -0.00685941 -0.132808 0.00556341 
64 2 34.9875 12.8509 33.8738 -0.0308582 0.02902 -0.0797461 
464 2 35.0423 13.074 33.3346 0.113157 -0.0610517 0.046179 
562 1 14.5795 32.6947 35.2219 0.0114435 0.0141027 0.0151669 
576 2 15.5566 33.2893 34.8794 0.0882205 -0.0333641 0.0142015 
421 2 14.3794 31.6739 35.1256 0.0397992 0.00445042 -0.0817394 
406 1 47.0322 6.70491 -8.29988 -0.000945421 -0.000124104 -0.0222636 
415 1 47.6574 5.33393 -7.65727 -0.00849525 -0.000771961 -0.0139384 
400 1 47.2289 3.99909 -7.66275 -0.00302883 0.0227775 -0.0160054 
426 2 47.8131 3.20621 -7.11493 -0.0155274 0.00489813 0.033488 
403 1 52.2256 4.84353 -7.05396 -0.00753115 0.00813857 0.0215342 
397 1 51.3145 4.88632 -7.98129 0.00115892 0.0350314 -0.0140935 
398 1 48.9324 5.55236 -7.74635 0.0198183 -0.00422374 -0.00924441 
425 2 50.686 3.50818 -7.04185 -0.0535451 -0.111041 -0.00442817 
17 1 49.9937 4.50486 -7.33947 0.0262665 0.0018795 -0.0176545 
413 1 53.4092 5.38791 -6.41705 -0.0259876 0.00686265 0.00872419 
424 2 47.8848 8.46813 -8.9563 0.0371222 0.097034 -0.108991 
412 1 48.147 7.35286 -9.15407 -0.0135049 -0.0124481 -0.00342932 
416 1 45.8344 6.35923 -8.85355 -0.011977 0.0180738 -0.0306989 
428 2 43.6497 7.27724 -9.01062 0.0101742 0.0547849 0.0724616 
431 2 44.2887 5.38967 -9.62103 0.0701508 0.0101263 0.028573 
419 1 44.5921 6.46643 -9.32443 0.051085 -0.00780419 -0.0173942 
409 1 51.8105 6.01402 -8.69281 -0.0187519 -0.0305854 0.00473603 
404 1 49.4218 6.67526 -8.69301 0.00353218 0.0179524 0.00767576 
423 2 52.8727 6.19939 -8.62757 -0.0331658 0.00212436 -0.0655984 
411 1 50.8672 6.74305 -9.07932 -0.00461872 0.0164509 -0.00435116 
427 2 51.1507 7.79735 -9.507 0.0303608 -0.0666433 0.0582002 
24 1 53.7349 -6.86591 -0.948579 -0.000306961 -0.000285292 0.0153211 
36 2 53.5464 -5.89892 -0.813178 -0.0341278 0.01747 0.0889199 
12 1 53.4064 -8.26408 -0.634086 -0.0044013 -0.0082673 0.00639417 
34 2 54.6226 -5.51346 -2.32806 0.0967758 0.0230859 0.0434306 
22 1 54.7317 -6.7218 -2.03035 0.0175762 0.0243069 0.0159222 
30 2 54.9681 -7.34983 -4.88411 -0.018063 -0.0225711 0.00351337 
21 1 55.5471 -7.94247 -4.17509 0.00628628 0.00065839 0.0299731 
4 1 54.7825 -10.4538 -0.466714 -0.0139518 0.0176768 -0.00758108 
6 1 54.3355 -9.34169 -1.27436 0.0027305 -0.0165107 -0.00712013 
5 1 55.0253 -9.13341 -2.37584 -0.0160138 0.0247517 0.00828182 
11 1 55.1742 -7.69789 -2.79256 0.000868583 0.0201374 0.0282744 
18 1 56.0725 -9.15514 -4.43135 -0.0242227 -0.0150735 -0.00122585 
3 1 56.4214 -9.86831 -1.90226 0.0468506 0.00574935 0.00515668 
9 1 56.7189 -9.93659 -3.29026 -0.016266 0.0239717 -0.00484045 
26 2 56.2463 -9.07408 -5.58065 0.0356908 -0.106887 0.0371215 
2 1 55.978 -10.9033 -1.03002 -0.00651237 -0.00689992 -0.0010976 
407 1 43.6967 5.8664 -3.92308 0.0246576 -0.00258377 -0.00999019 
402 1 45.9594 4.27746 -6.94283 0.022953 0.0173661 0.00897707 
401 1 45.2134 4.71293 -5.7753 0.0062095 -0.00028946 0.00767978 
399 1 44.613 5.2341 -4.93379 -0.00776012 -0.00201441 -0.00422217 
429 2 45.4351 6.53825 -2.7027 -0.0378784 -0.0408595 -0.0394444 
29 2 54.4043 6.10396 -6.68088 0.0231135 -0.0670469 0.0310548 
410 1 53.8568 4.53566 -5.29896 0.0160281 0.0149933 0.011274 
14 1 54.2094 4.36146 -3.86277 -0.00231762 -0.0057675 0.00651341 
422 2 53.4676 4.05103 -3.1018 -0.0389268 -0.0218681 -0.0301188 
250 2 43.085 5.05843 -3.76121 0.00184909 -0.055787 -0.0629158 
414 1 44.1577 5.95479 -1.49179 0.011725 -0.0172252 0.00241732 
405 1 43.5487 5.67541 -0.39032 0.052186 -0.0165206 -0.00722478 
417 1 44.3441 6.51913 -2.75296 -0.00763656 0.00588827 0.00643124 
23 1 52.5123 -9.01182 0.309496 -0.0151063 -0.0338903 -0.0126193 
35 2 51.8376 -8.46687 0.88413 0.0196537 0.0145842 0.0192147 
32 2 52.3836 -11.0733 1.50465 -0.0282182 -0.0487052 0.00797475 
20 1 52.9699 -10.0812 1.03381 0.0172896 0.0234321 -0.00640715 
10 1 54.0969 -11.2873 0.866819 -0.00840989 0.00368922 -0.0113712 
430 2 42.4395 4.54867 3.77013 0.0954065 0.0267134 0.0344145 
420 1 42.5754 5.50342 3.25211 0.00740361 0.0019563 0.00103742 
136 2 41.846 6.25215 3.49233 -0.0399037 -0.00301219 0.101931 
539 2 59.2889 -3.43614 6.48145 0.100506 -0.0527146 0.0395082 
179 2 59.299 -4.32078 6.68828 -0.0501287 -0.0606189 0.00321705 
408 1 43.0004 5.60536 1.95277 0.00761262 -0.0112078 0.0144583 
418 1 43.2009 5.63693 0.717934 -0.0039314 -0.000353814 -0.0139963 
282 2 49.7595 8.20616 -11.0225 0.0352222 0.0194298 -0.00658483 
135 2 49.6115 7.62896 -11.9566 0.0335704 0.0386229 -0.086747 
504 2 56.651 -11.0068 14.8338 0.0170219 -0.0854348 -0.0121087 
71 2 56.0413 -11.2818 15.4506 -0.0715832 0.053316 -0.0350341 
538 2 42.9463 -4.11034 21.7569 0.0588329 -0.0111879 0.133398 
526 1 42.4989 -3.15632 21.7986 -0.00462252 -0.0160973 0.0277979 
509 1 42.3621 -0.745417 22.3562 0.0196869 0.0242665 0.0175772 
510 1 40.9237 -0.902561 22.5678 -0.00446845 -0.00630255 -0.00559719 
516 1 40.3045 -2.18688 22.8205 -0.000888299 -0.00459074 -0.00943747 
528 1 41.2114 -3.15473 22.3693 0.0048239 0.00968672 0.00378523 
527 1 39.0171 -2.32407 23.5972 0.00949293 0.0131454 0.00704173 
524 1 38.4421 -1.22011 24.4316 -0.00447953 0.000361095 -0.00120839 
536 2 38.1792 -1.43359 25.5107 -0.0413215 0.0610565 0.0205518 
515 1 43.1523 -1.64454 21.8132 -0.0103834 0.0162298 -0.00342061 
525 1 44.0944 -0.99598 20.9007 -0.00287025 0.0274901 -0.00869414 
534 2 45.1753 -0.681286 21.4039 0.080859 -0.00560785 0.0372859 
508 1 40.3063 0.221845 23.2433 -0.00834946 0.00187381 -0.00564735 
514 1 39.1372 0.134047 24.1742 0.0265098 -0.00116411 0.0160776 
506 1 40.8252 1.71773 23.1179 -0.00582535 0.0113868 0.00179807 
512 1 39.9045 3.03189 23.3976 0.0161247 0.0120116 0.0103561 
517 1 41.4804 4.2146 21.8141 0.00828735 0.00286703 -0.0187639 
519 1 40.4998 4.24847 22.829 -0.00100214 -0.0247813 -0.0129972 
520 1 38.624 2.82451 23.9133 0.0169275 -0.00123314 0.0102316 
523 1 38.294 1.39149 23.9884 -0.00609558 -0.0347148 0.0142688 
535 2 37.7661 3.35759 23.6828 0.00355102 0.0224325 0.0590619 
522 1 43.6255 0.306926 20.6035 0.015886 -0.0203445 0.0184211 
507 1 42.8158 0.678666 21.8071 0.00165925 -0.00959945 -0.0263463 
505 1 42.1111 1.74046 22.5928 0.00599503 0.00823763 -0.0161547 
513 1 44.0808 1.47715 19.619 0.00795604 -0.00143777 -0.0131992 
533 2 43.8739 1.61101 18.5422 0.116686 0.0556582 0.0373271 
511 1 42.5116 3.26628 22.2087 -0.00165792 0.0115777 0.0045022 
529 2 41.6453 4.76095 20.6919 -0.034735 -0.0174993 0.0621887 
521 1 44.5065 2.83275 20.197 0.00601784 0.0267255 -0.00164038 
518 1 43.4647 3.26606 21.2583 -0.00250552 -0.00164425 0.00660476 
530 2 44.4387 3.75084 19.3553 -0.00115117 0.0713266 0.00176153 
531 2 39.736 5.14413 22.2827 0.0221852 -0.00392197 -0.103067 
144 2 46.3316 32.7629 -8.5645 0.037629 0.1734 -0.0171155 
394 2 46.5002 33.3785 -9.10843 -0.077171 -0.000706519 -0.0338701 
8 1 58.6534 34.7536 -1.34019 0.00953689 -0.00130278 -0.0201245 
13 1 56.9393 33.7927 -2.17775 -0.0341835 0.0358926 0.0372793 
1 1 56.4624 35.749 -0.358448 -0.00960469 -0.00574404 0.00728984 
7 1 57.247 35.1835 -1.51532 -0.00851855 -0.00290197 0.00512321 
15 1 58.383 33.431 -2.16476 0.00143264 -0.0129069 -0.00616236 
25 2 55.9267 33.4602 -1.84387 0.0100095 0.00585913 0.0138099 
27 2 58.617 32.3609 -1.92674 0.0329318 0.0551829 -0.0392713 
16 1 55.9495 35.2479 0.841301 -0.00512379 0.0104138 0.00621909 
28 2 55.5259 34.1353 0.907726 0.0206487 0.00261102 0.0439722 
19 1 54.7317 35.7302 1.58682 -0.0177792 0.00343956 -0.000722862 
31 2 53.6279 35.4604 2.24767 0.0414359 0.0712687 -0.0504886 
67 2 48.7724 28.7868 11.1714 -0.0725291 0.0301166 0.0313939 
55 1 47.8035 28.1599 11.5383 0.000587383 -0.0362129 -0.00119774 
52 1 46.5968 27.8966 11.9405 -0.00994554 0.0224444 -0.00250906 
65 2 44.1517 22.2402 11.3998 0.0964899 0.0870616 -0.0674977 
62 2 46.6111 21.3735 11.6585 -0.0573071 -0.0282188 0.0165389 
53 1 44.5786 22.1025 12.3644 -0.0235524 0.021111 0.0221564 
39 1 46.7649 23.0811 12.9623 0.0131222 -0.0335777 0.00803136 
61 2 43.2705 25.5103 13.7907 0.0245927 0.0140141 -0.14771 
45 1 46.09 22.0411 12.3733 0.030465 -0.0229495 -0.0137607 
50 1 44.0127 23.1527 13.0351 -0.00633437 0.0120526 0.00575268 
54 1 50.2399 22.8062 13.9709 0.0105377 -0.00277452 -0.0191612 
58 1 48.8621 22.7945 14.098 -0.0224695 -0.0117263 -0.00519029 
69 2 50.7815 22.5327 14.9793 -0.041948 0.0461263 0.0278847 
57 1 48.4899 22.4276 15.3992 0.001112 -0.0246408 0.00387516 
41 1 48.1667 23.5909 13.1225 0.0252996 0.00428942 -0.022273 
47 1 48.5003 21.5988 16.1867 -0.00842105 0.0142714 0.0150967 
66 2 48.6386 20.7362 16.898 -0.0301789 -0.0340918 -0.0674078 
60 1 50.935 23.9003 13.453 -0.000739367 -0.000619907 0.0349284 
48 1 50.1515 25.0606 13.0454 -0.000501396 0.0346709 0.00627854 
49 1 44.3714 25.6004 14.1037 0.00730886 -0.0112373 0.0156049 
37 1 46.1981 24.2423 13.7422 -0.00952387 0.00927379 0.0201108 
38 1 46.546 25.3917 13.4636 0.000610207 -0.00472303 0.0172703 
59 1 49.8322 27.389 12.4371 -0.00721627 0.00325862 0.00787564 
40 1 48.0482 25.8675 12.8026 0.00556912 -0.0175468 0.0150592 
51 1 45.635 27.567 12.6055 -0.0191997 -0.0196836 0.00833118 
63 2 44.7043 27.998 12.3286 0.0948194 0.057593 -0.0434131 
43 1 44.7576 24.3208 13.7637 -0.0175826 0.0194706 -0.00287266 
44 1 45.5437 26.3076 13.5165 0.00079036 -0.0205967 0.0074319 
70 2 52.0973 23.9415 13.491 -0.0443684 -0.00587062 0.0269939 
72 2 51.6243 26.675 13.0025 -0.00558533 -0.0543187 0.0198103 
68 2 50.4639 28.2669 12.0604 0.014688 -0.00890259 -0.0236045 
46 1 48.4007 27.2501 12.7269 -0.00737346 0.0363669 -0.0280088 
42 1 48.6478 24.725 12.7181 0.00424556 0.0171436 -0.0106625 
56 1 50.7095 26.3888 13.0695 0.0250514 -0.0144869 -0.0149704 
491 1 71.7701 -11.4154 5.20687 -0.0124683 -0.0194625 0.00680465 
488 1 70.8178 -10.4218 5.82814 -0.0244998 -0.0040224 -0.00498504 
501 2 70.9928 -9.53268 5.54897 0.132487 -0.0583257 -0.0431625 
500 2 72.3532 -10.4871 4.73255 0.00515473 0.0504173 0.0216133 
475 1 69.7736 -10.8926 9.76495 0.00940458 -0.000388393 -0.0254308 
482 1 69.0507 -10.0374 8.89966 -0.00745449 0.00420556 -0.0065459 
485 1 69.0049 -10.3807 7.45098 0.00643793 0.0105039 -0.000245511 
108 2 68.148 -9.39665 8.8756 -0.0471245 0.0660094 -0.0181298 
498 2 68.3758 -9.74696 6.83028 0.0232353 -0.0104767 0.0127444 
477 1 70.262 -10.8227 7.16005 -0.00210622 0.0288087 -0.00590756 
494 2 70.0259 -10.2854 10.7261 -0.0243388 -0.0429181 -0.0861276 
496 2 78.2442 1.3318 11.9012 -0.0542283 0.0245707 0.0147044 
85 1 75.6021 -11.4088 10.301 0.0140574 -0.00574519 -0.0254497 
87 1 76.5251 -11.3167 11.5029 0.00252104 -0.0136578 -0.0111967 
99 2 75.8384 -11.2914 9.17863 0.0688445 -0.0719148 -0.0767587 
469 1 70.8495 -11.8686 9.13218 0.00664305 -0.000436532 0.00580776 
80 1 77.3784 -11.4249 12.4205 -0.0184622 0.00956572 -0.00229448 
314 2 67.695 -6.67769 15.0062 0.0322173 0.0876655 0.0203752 
33 2 71.3801 3.20718 20.375 0.0492616 0.0232348 -0.0266052 
134 2 74.5688 -2.03711 17.2828 -0.0395762 -0.0227442 -0.0466898 
139 2 74.1381 -3.22997 15.3935 0.0458292 0.0901728 -0.0471617 
122 1 75.5159 -1.57939 17.5881 0.00463468 -0.0186108 -0.0175365 
121 1 75.2319 -2.84387 15.3038 -0.00281726 -0.00427662 0.0059704 
123 1 75.8913 -2.64217 14.1792 0.0151529 -0.00868639 -0.00539798 
115 1 76.1314 -2.20364 16.4079 -0.00834825 0.0359632 0.0176691 
109 1 77.2595 -1.13173 16.0968 -0.0197799 0.0052004 -0.00953412 
116 1 76.8809 -1.33042 13.9209 -0.0291101 -0.0090935 0.0029215 
111 1 78.2742 -1.02303 17.3034 -0.0160295 0.00653585 0.0120007 
110 1 77.543 -0.357728 14.8947 0.00416443 0.01725 -0.00173046 
124 1 77.1366 -0.832905 12.6262 -0.0331564 0.000797212 -0.0317957 
112 1 78.938 -0.0801215 14.647 0.0013012 -0.0122953 0.00729923 
113 1 79.6106 -0.56256 16.8182 0.00277604 0.0107352 -0.0106343 
127 1 78.1276 0.291523 12.3118 -0.00974799 0.0137344 -0.0057718 
114 1 80.1061 -0.0422922 15.5527 -0.010229 -0.0364222 0.00430928 
143 2 81.7469 2.70174 13.7276 -0.0251762 0.0525301 -0.00882638 
118 1 79.3114 0.681495 13.1877 -0.0184356 -0.0139787 -0.0231105 
132 1 81.3666 1.84247 16.7094 -0.0165766 0.0159803 -0.0371812 
128 1 80.6893 1.09006 12.7631 -0.0155936 0.0188333 -0.0191201 
120 1 80.8225 1.19879 15.3627 -0.00392554 0.00504261 0.000883775 
131 1 81.2892 1.78087 14.0956 0.00694569 -0.00881383 0.0100413 
493 2 70.6912 -11.5705 12.1466 0.0394831 -0.0135185 -0.0631781 
142 2 81.363 3.14178 16.7825 -0.107811 -0.146627 -0.0901374 
137 2 75.6575 -1.64023 19.8292 -0.0690855 -0.00704787 -0.0332895 
125 1 76.0142 -1.23106 18.9324 -0.0359323 0.0013874 0.0116076 
141 2 80.359 0.282907 19.9724 0.0237513 0.0118209 -0.0456666 
129 1 79.6053 -0.497783 19.2943 0.0195725 0.00393509 0.0188147 
119 1 80.379 -0.0382392 18.0737 -0.000400688 0.00705009 0.0259159 
138 2 77.7118 -0.605637 20.4667 0.055523 -0.0245999 -0.0705263 
126 1 78.3984 -0.959846 19.7754 0.0120946 -0.00221634 -0.00149139 
117 1 77.5566 -1.34256 18.5773 -0.00686007 0.00072403 0.0326463 
130 1 81.3973 1.02105 17.9709 -0.0283499 -0.00568672 -0.00704975 
287 2 71.4039 2.34354 21.0867 -0.0102242 -0.0999256 0.0678723 
100 2 78.0716 -11.2874 13.2049 -0.192011 0.00184241 0.024142 
140 2 81.4388 0.22445 12.1974 -0.00199498 0.0480428 0.0331129 
363 1 82.3882 29.1814 8.63262 -0.00973628 0.0151607 -0.00978224 
502 2 69.7366 29.7872 1.30748 0.0883288 0.0227513 -0.018413 
489 1 70.8649 30.9195 2.977 -0.00404295 0.00537063 0.0203228 
486 1 70.4935 29.9063 2.16299 -0.00633524 -0.0241721 0.0159148 