ITEM: TIMESTEP
1090000
ITEM: NUMBER OF ATOMS
576
ITEM: BOX BOUNDS pp pp pp
-1.2000000000000000e+01 8.4000000000000000e+01
-1.2000000000000000e+01 3.6000000000000000e+01
-1.2000000000000000e+01 3.6000000000000000e+01
ITEM: ATOMS id type x y z vx vy vz 
109 1 3.05855 -1.44441 -6.89026 -0.00857366 0.00500419 0.00572042 
121 1 3.02458 -3.0213 -8.46467 -0.0179913 0.00160392 0.017589 
115 1 2.39366 -1.86919 -8.22601 -0.0266585 -0.000245547 0.0055491 
110 1 4.33651 -2.07146 -6.32826 -0.0133279 -0.00677192 -0.006956 
123 1 3.7265 -4.01369 -7.60849 -0.00251646 0.0113212 -0.0187564 
139 2 2.07154 -1.54586 -9.37461 -0.0252245 -0.0834283 0.109247 
496 2 3.34742 -4.99487 -7.72565 -0.0638377 -0.0439642 0.0575865 
116 1 4.81933 -3.37555 -6.93608 -0.0359734 -0.0158702 -0.0180985 
205 2 7.08138 -3.94227 -8.04486 0.0655575 0.0335113 0.00946175 
124 1 6.45912 -3.33694 -7.00657 -0.0224056 0.000652239 0.025765 
117 1 1.02124 -0.843714 -5.56176 -0.0305041 -0.0367748 0.0311665 
134 2 0.250462 1.6016 -8.01222 0.0333215 0.00276802 -0.0385904 
125 1 0.666763 -0.0224106 -6.51551 0.0223793 -0.00241397 0.0302133 
122 1 0.101527 0.833983 -7.25065 0.00569649 -0.0028708 0.02639 
503 2 3.49858 9.12663 -1.74714 -0.0450639 0.00110012 0.140094 
104 2 3.19363 8.90506 -2.25579 0.0480903 0.0943768 0.0427333 
141 2 0.524282 -1.30396 -2.29117 -0.10745 -0.033673 0.0220921 
111 1 2.38075 -0.916394 -5.73663 0.000880173 -0.030601 0.0122006 
278 2 2.32096 -8.71562 3.57812 -0.0077444 -0.0832939 0.0862616 
130 1 2.59319 -1.9813 -1.98658 -0.00508267 0.0108913 -0.0205479 
142 2 1.86772 -1.84328 -1.0539 0.0496295 0.0629025 0.0601973 
120 1 5.01634 -1.22751 -3.07499 -0.0130856 0.0176445 -0.0124961 
132 1 3.97428 -1.59389 -2.18665 0.0121677 0.0306671 -0.0250511 
114 1 4.31844 -0.922442 -4.34969 0.000886797 -0.013797 -0.00342035 
113 1 3.00115 -1.34459 -4.4892 -0.0150829 -0.006438 -0.0148473 
119 1 2.1209 -1.86531 -3.17157 0.00546329 0.00345012 -0.001158 
131 1 6.4699 -1.37654 -2.4752 0.0117946 0.00820943 -0.0230065 
112 1 5.17026 -1.25507 -5.24754 0.0182404 0.00476226 0.00656682 
129 1 0.727997 -1.31173 -3.43097 0.00248821 -0.00681393 0.0162238 
143 2 6.72737 -1.28428 -1.48567 -0.0131857 -0.0434022 0.0111492 
140 2 8.23513 -1.46101 -2.94648 0.07075 -0.0099672 0.0440199 
128 1 7.15752 -1.37226 -3.55477 -0.0427549 0.0311352 0.0162828 
118 1 6.61397 -1.66028 -4.9067 0.017063 0.0255205 -0.0037457 
127 1 6.7321 -2.36351 -6.20363 -0.0039601 0.00510838 -0.0136515 
126 1 0.095826 -1.17998 -4.48338 -0.0102037 -0.0121799 0.00189001 
138 2 -0.938481 -0.728458 -4.46375 0.0198704 0.051268 0.00897933 
391 2 -0.228227 3.21743 1.3715 -0.0586523 0.0652512 -0.0380444 
283 2 2.61398 -9.44799 3.29009 0.0363303 0.00887259 -0.0143628 
395 2 3.65987 4.15282 3.20067 -0.00688419 -0.0633243 0.0244788 
380 1 3.18434 5.11745 3.46498 -0.0115867 0.0112409 -0.0129267 
392 2 4.7769 5.68624 4.70324 0.0153479 -0.0180367 -0.0348483 
376 1 0.217992 4.0459 1.64861 -0.0131918 0.00167741 0.0186118 
370 1 1.8914 5.11561 3.06219 0.00502426 -0.0107739 -0.0110982 
383 1 3.75072 5.93098 4.27603 0.00373946 -0.0179064 -0.00164087 
379 1 1.35195 4.06363 2.23476 0.00266759 -0.0119646 0.0028594 
363 1 -0.0899195 8.74102 3.71805 0.0205392 -0.0026628 -0.00284072 
361 1 -0.60441 8.16951 2.40806 0.00614277 -0.00313247 -0.00458164 
377 1 -1.59618 10.2123 2.9152 -0.00227587 -0.00961041 -0.0146178 
367 1 -1.55013 8.4103 1.53562 0.0333483 0.00454987 -0.0125582 
374 1 -1.80414 9.9176 1.53648 0.00863657 -0.0153476 -0.00439755 
387 2 -2.63972 7.77407 -0.32676 0.0226186 -0.0589749 0.086857 
373 1 -1.84709 7.35195 0.337275 0.00705535 -0.0182542 0.0192502 
375 1 -1.35924 6.09415 0.669676 0.00915137 -0.0245777 -0.0185707 
369 1 -0.708871 9.98104 4.01407 0.00160475 0.00784342 0.0236651 
386 2 -2.70304 10.2274 0.947595 -0.0285387 0.0171513 -0.0137687 
368 1 -0.493116 5.45279 1.65643 -0.029146 -0.0079775 -0.00201776 
378 1 0.144047 11.1171 4.96263 -0.0131582 0.013396 0.00522077 
384 1 3.59128 7.81644 5.82699 0.019073 -0.00666342 0.0340615 
362 1 0.104557 6.77803 2.1957 0.00148446 -0.0329812 -0.0175315 
365 1 0.871013 8.26172 4.60439 0.015946 0.009427 -0.00809991 
366 1 1.48471 7.2268 4.50356 0.00360634 0.0041606 0.00550418 
364 1 1.06663 6.4209 3.28759 0.00968167 -0.0104062 -0.0193741 
372 1 3.04113 7.11361 4.78324 -0.00928555 -0.00213926 -0.0136982 
371 1 1.59776 9.19398 5.6364 0.0142985 0.00851241 0.00514446 
381 1 1.05202 10.4633 5.55708 -0.0124705 0.0160589 -0.00303283 
396 2 3.37387 9.65225 6.90756 0.088646 0.0117859 -0.0320691 
382 1 2.97754 8.99517 6.09906 -0.0098434 -0.0168247 -0.0142413 
495 2 -0.550496 12.1548 5.08886 0.0455732 0.109014 -0.0084708 
179 2 10.2424 11.4778 4.0923 -0.129149 -0.00552656 0.0291821 
539 2 10.0322 11.4544 3.27913 0.0783554 -0.0801249 0.0361562 
314 2 -6.05973 -1.71072 27.0435 -0.0886265 0.0135597 0.0634064 
287 2 -5.33406 24.4824 9.66061 0.110132 0.0230454 -0.0862867 
288 2 -11.2226 22.8765 -10.0698 -0.0149623 -0.00730567 0.0146595 
272 1 -10.6342 26.2989 -7.53102 -0.0135387 0.0164051 -0.0081183 
275 1 -10.5979 25.5461 -8.82706 0.00627602 -0.0266029 0.00810955 
243 2 11.2328 21.7512 2.70535 -0.0120933 -0.060086 0.0256557 
232 1 11.9952 24.0941 1.3414 0.010114 0.00568455 0.0182339 
247 2 11.7133 26.4495 1.68588 -0.00610859 0.0760719 -0.0442269 
318 2 7.97678 23.7571 2.54034 0.0412245 -0.0641217 -0.109549 
239 1 11.3836 26.3816 4.21773 -0.0095038 0.0122606 0.0296902 
251 2 10.6817 26.6842 3.50564 -0.0252175 0.0635335 -0.0298811 
388 2 11.0249 27.7637 5.79912 -0.0311382 -0.0340184 -0.0325997 
236 1 11.6968 26.9928 5.38187 0.0266096 0.0106516 -0.00504763 
262 1 -11.842 27.3017 -7.60378 0.0154873 0.0147082 0.0225643 
389 2 8.95886 23.9604 2.57175 -0.0481455 0.0178254 -0.0997293 
33 2 -4.49386 24.4264 9.0932 0.0624206 0.0510957 -0.0400602 
467 2 -3.74706 18.3423 16.4991 0.00278327 0.029902 0.00347029 
456 1 -6.61306 19.2012 16.7751 0.0253846 -0.0130197 -0.0114447 
468 2 -6.60448 18.1726 16.2083 0.0139737 -0.00579759 0.04665 
453 1 -9.77622 22.5103 15.3306 0.00277163 -0.00460998 0.0150714 
443 1 -8.69188 20.2254 16.4346 0.0142791 -0.031755 -0.00467213 
450 1 -9.19659 21.4351 15.8602 0.017011 0.0253225 -0.0236302 
444 1 -5.30406 19.2691 17.5928 -0.0182279 0.00611864 -0.00336193 
454 1 -7.45245 20.3334 17.4399 -0.0116695 0.00696401 0.00843645 
465 2 -8.42856 22.1849 17.8406 -0.110888 0.0263369 -0.0133893 
455 1 -3.8971 18.8029 17.4562 -0.00158632 0.00535686 0.0137763 
458 2 -9.29458 25.5386 17.9587 -0.0334683 0.0416648 0.000264234 
64 2 -0.245925 13.7364 35.0071 0.120671 -0.0182288 0.0699041 
459 2 -3.67199 23.0168 23.2408 0.0107951 0.0788571 -0.024613 
462 2 -9.36437 19.2458 16.522 -0.0349379 -0.012213 -0.0293105 
435 1 -7.25485 21.7976 19.5366 0.00890071 -0.00615935 -0.00523182 
437 1 -7.08011 20.7409 18.7012 0.0240959 -0.00785116 0.0239727 
433 1 -6.37397 22.2357 20.4254 0.00778057 0.0115261 -0.0110922 
439 1 -6.27374 23.5071 21.2727 -0.00779911 0.00187539 0.00220576 
441 1 -8.03411 22.8315 18.7515 0.00992477 -0.018708 -0.0103876 
461 2 -8.73992 23.0241 19.5805 -0.00139482 -0.0126128 0.00564437 
438 1 -5.58636 20.1449 18.643 0.00886976 -0.00623525 -0.0257369 
463 2 -1.89925 19.213 20.7555 0.0788094 0.0323658 0.0323452 
436 1 -4.71281 20.8878 19.409 0.0168019 -0.00142524 0.00803625 
442 1 -3.29478 20.1236 19.4163 -0.0163371 0.0234669 -0.0254749 
434 1 -5.12878 21.6106 20.5039 -0.0144108 0.00444894 -0.0207684 
452 1 -3.29204 19.2046 18.4025 0.0153989 0.0138726 0.00987805 
451 1 -2.24564 20.1728 20.4591 0.0110611 -0.00936471 -0.0235185 
448 1 -2.39347 21.3147 21.2627 -0.00694296 0.0110017 0.0160544 
440 1 -3.70163 21.9503 21.2776 0.00533359 -0.0332185 -0.00340778 
460 2 -1.766 21.65 22.1177 0.0492647 0.0172395 0.0854275 
445 1 -5.33786 23.4586 22.311 0.00118684 0.000530424 -0.00729632 
447 1 -4.29584 22.697 22.4448 0.00808856 0.0163993 -0.0370111 
457 2 -7.06803 24.0493 21.2455 -0.0980881 -0.0308633 -0.00680972 
449 1 -7.54383 24.3382 18.5908 -0.0337645 -0.00554689 0.0134442 
464 2 -6.54156 24.4747 19.0696 0.0198255 -0.0637387 -0.00598582 
446 1 -8.65717 25.2197 18.8192 0.0285892 -0.0202126 -0.0021975 
170 2 -0.783449 13.3745 34.9836 -0.0163634 -0.0282904 -0.0880759 
98 2 17.922 -6.36562 -11.7524 0.0333651 0.00832919 -0.0156374 
504 2 22.0108 -2.6515 9.43818 0.0246376 -0.109396 -0.0494364 
248 2 34.9607 8.12387 -7.60577 0.0249002 -0.00636378 -0.0420254 
70 2 24.5074 5.50836 9.55314 0.0726529 0.0317705 -0.055079 
176 2 35.7987 8.54412 -7.58653 -0.0466763 0.0110338 -0.0258272 
321 2 35.213 -5.42493 8.37224 0.0761128 -0.0634425 -0.0670352 
427 2 35.9655 5.16342 4.7285 0.0449088 -0.0688271 -0.0207374 
71 2 22.4855 -3.35254 9.09695 -0.0455296 0.0534317 -0.0531907 
29 2 35.5329 6.23061 1.0386 0.0502049 -0.0379976 -0.0228128 
422 2 36.0392 7.40435 -0.0329299 0.123322 0.0420535 -0.0335528 
320 2 36.052 -3.62101 11.9052 0.0266073 0.0321525 0.0450093 
319 2 35.7029 -7.59174 10.6184 -0.0567463 -0.041226 0.0223574 
309 1 35.7894 -3.23383 16.9252 0.0106993 0.00842647 -0.00959572 
304 1 35.7391 -7.37894 12.6863 0.02288 0.0131587 -0.0175319 
341 1 30.2995 6.40498 25.0699 -0.0225215 0.0166277 -0.00866399 
296 1 35.9597 -6.67649 13.8537 0.0316448 -0.0125403 -0.00122005 
303 1 35.6712 -7.00286 15.0465 0.0116098 0.0153618 0.00162074 
301 1 34.2759 -6.82471 15.7609 -0.0018866 -0.0152382 -0.0109061 
315 2 34.5479 -7.21166 16.7781 -0.0398201 0.0193044 0.00558229 
316 2 33.5783 -7.22155 15.0034 0.0574267 0.0583704 0.0553998 
180 2 15.1592 1.49784 33.4207 -0.0295997 0.0388107 -0.0485255 
353 2 30.2279 5.45059 24.5493 0.0139407 0.107924 0.0745511 
333 1 30.4734 7.51717 24.2274 -0.00968039 -0.0182927 0.00403777 
306 1 34.5518 -1.78661 13.9923 0.0177179 0.00681299 0.0256158 
310 1 35.3489 -2.50384 14.5134 -0.00544118 0.015587 0.0206528 
322 2 34.0267 -1.08711 13.6053 0.0421191 -0.0375489 0.0799148 
343 1 25.995 11.9407 26.7395 -0.00793264 -0.0166728 0.0010039 
295 1 35.0285 -5.49947 15.9335 -0.0212509 -0.0048946 -0.0112088 
302 1 34.5361 -5.44695 17.2685 -8.32773e-06 -0.0134903 0.0299534 
297 1 35.7628 -3.60554 18.2216 0.0140144 -0.00766182 -0.0125715 
325 1 29.1297 8.94709 26.1532 0.00814615 0.0134254 0.0205177 
168 1 14.1307 1.98932 33.638 -0.0199016 0.020753 0.0398364 
156 1 13.5413 0.951224 34.2003 -0.0127528 -0.03102 0.0146525 
245 2 34.9304 -7.96072 12.8494 0.0442998 -0.0209365 0.10799 
498 2 27.8777 1.24887 14.4254 -0.0247802 -0.0296312 -0.140864 
485 1 28.5588 0.457737 14.2611 0.00566488 -0.0234406 -0.0111676 
482 1 29.5485 0.0872046 13.5091 0.0118475 -0.00799455 -0.0180616 
494 2 28.7821 0.0305241 15.17 -0.0226054 0.153839 0.0179649 
574 2 28.2476 -7.50117 20.5373 0.0924329 -0.00344138 0.0258514 
352 2 27.3441 -7.24408 20.7659 0.00219287 0.018578 -0.0519354 
305 1 34.6078 -4.69651 18.551 -0.0052432 -0.0284808 -0.0113692 
35 2 33.9277 -4.92031 19.3052 0.000816489 0.112898 -0.0346544 
329 1 29.314 9.85049 23.8388 0.00284678 0.018084 0.00561795 
335 1 30.1477 10.1872 22.4479 0.0245964 -0.0173627 0.00472601 
346 1 30.3746 11.4795 21.8261 0.00224526 -0.02019 -0.00507947 
358 2 31.2529 11.6874 21.0749 -0.0028623 -0.0026316 -0.0240565 
354 2 31.4372 6.85186 22.9055 0.0229539 -0.0477637 0.00384174 
342 1 30.9738 7.81864 23.1456 -0.00588488 0.0234378 0.00111155 
345 1 31.1731 9.22258 22.4566 0.014957 0.00990621 0.000874179 
216 2 32.2334 9.47814 22.3948 0.0190722 0.0445387 -0.035007 
338 1 29.6859 6.55693 26.3094 -0.0131842 -0.0083989 0.0183365 
339 1 27.0402 8.48624 28.0207 0.0142921 -0.00977048 0.00445182 
330 1 29.1538 11.266 24.2955 -0.0194511 -0.00643471 0.000455459 
350 2 28.7548 5.82999 26.6538 -0.0452484 -0.0827068 -0.0113949 
337 1 27.824 7.44202 27.7984 -0.00733192 -0.0201048 0.00919771 
351 2 26.2132 8.50778 28.8206 0.0966104 -0.0397682 -0.0509002 
349 2 27.4681 6.40794 28.0454 0.0277506 -0.0567407 0.0596768 
327 1 29.5583 8.8871 24.8578 0.0160189 0.0026363 0.0101441 
331 1 29.0433 7.75362 26.9835 -0.0050462 -0.011969 0.0048774 
340 1 26.5455 10.915 27.6825 0.00977658 -0.00558615 -0.00980031 
328 1 28.2196 11.0966 25.3093 -0.00596946 0.0316842 0.00357191 
326 1 28.086 10.0371 26.2612 -0.00803647 0.0117424 -0.0202504 
332 1 27.5322 9.87792 27.6048 -0.0450913 0.00266504 0.00326063 
99 2 27.7785 23.6689 -12.0084 0.00851924 -0.0541005 -0.015512 
240 1 12.8325 26.5455 7.46998 0.0121875 -0.00659497 -0.00204998 
252 2 12.2736 27.3925 8.06431 -0.0359708 0.0253467 0.0171275 
228 1 12.7068 26.1456 6.09891 -0.019521 -0.00322698 0.0134169 
219 1 15.0253 23.6125 4.98826 -0.0162436 -0.00140873 -0.0136246 
218 1 13.5369 23.795 3.32592 0.0109889 -0.0127543 -0.00401448 
231 1 12.2205 21.951 2.99044 -0.00461384 0.0365734 -0.0090865 
229 1 13.1477 20.9173 3.21647 -0.0114145 0.0056015 0.0031791 
223 1 14.4974 21.4294 3.85405 -0.0190379 -0.0124522 0.00160253 
221 1 14.3859 24.2333 6.05752 0.00172484 0.0206966 0.0207967 
224 1 12.6505 23.2497 2.39212 0.0147127 -0.00936281 0.00575345 
217 1 14.2571 22.9541 4.06966 0.00964272 0.0039632 0.011553 
540 2 20.9457 26.528 10.1023 0.0856427 0.0076965 -0.021455 
241 2 12.7784 19.9716 3.94014 0.0635527 0.0637155 -0.0764539 
233 1 15.4542 20.6716 4.74955 -0.0173622 -0.0221164 -0.00671907 
242 2 15.343 19.5393 5.0078 -0.0261657 -0.0812998 -0.00167147 
230 1 16.6082 21.5513 5.15772 -0.00805838 -0.000724067 -0.0234413 
220 1 13.3457 24.9339 4.07149 -0.00475288 -0.000966891 0.00857897 
222 1 13.4953 25.2172 5.62029 -0.00222553 -0.0271729 0.0145403 
237 1 14.1239 23.392 8.59109 0.0154924 0.00266344 -0.00286695 
246 2 14.0829 22.7103 10.742 -0.0339854 0.0228709 0.00710555 
225 1 16.3795 23.0222 5.1758 0.0258741 0.0112632 -0.0112233 
234 1 14.8166 23.1631 9.75808 0.0077148 -0.00753833 0.00159654 
249 2 15.734 22.6886 9.80148 0.0497546 0.0248529 -0.0665262 
227 1 14.0881 24.3793 7.51648 0.0179705 0.0115919 0.0123383 
238 1 13.693 25.651 8.07157 0.0226109 0.0326499 0.0070847 
226 1 12.5785 25.9025 3.25293 -0.0190065 0.022404 -0.00904645 
357 2 13.5051 25.4958 9.18339 -0.0914784 0.0317165 -0.0529397 
537 2 20.957 25.9141 9.58194 0.0384167 0.0447088 -0.0780021 
235 1 12.0762 25.3867 1.97855 0.00254025 0.0152615 -0.0112624 
244 2 12.0003 23.9592 0.0442731 -0.0192325 -0.01168 -0.0186187 
108 2 26.576 25.0227 35.4566 -0.0156084 0.0494703 0.0211947 
85 1 30.6735 25.6791 33.1543 0.00205656 -0.0156137 0.00240443 
347 1 27.8201 13.3186 23.9371 0.00370266 -0.0100615 0.0150433 
359 2 27.7302 14.1451 23.3599 0.023884 -0.0181875 0.050401 
360 2 28.7392 13.0841 21.6287 0.016112 0.00557675 0.037417 
336 1 28.6497 12.3528 23.3467 0.023106 0.0315873 -0.00396908 
348 1 29.2675 12.2511 22.1839 -0.00645111 0.000165901 -0.0255954 
100 2 31.2734 26.0673 32.1618 0.050773 -0.0836756 0.00341669 
68 2 24.9037 12.2463 26.8287 0.0484267 0.0330066 -0.0542873 
344 1 27.1801 13.3851 25.2224 -0.000311191 -0.0141762 0.00977867 
356 2 26.7663 14.0889 25.8724 -0.0135717 0.00287361 -0.0766014 
334 1 27.0176 12.0813 25.6929 -0.00568569 -0.00524104 0.00017358 
475 1 27.3517 24.3648 35.4094 0.00640712 -0.00738685 -0.00099389 
87 1 28.4589 24.9293 34.5992 -0.0373131 -0.0149782 -0.0198232 
80 1 29.6545 25.3364 33.8429 -0.0146486 -0.0157435 -0.0184876 
403 1 36.3918 10.1366 1.22915 0.0224654 -0.00990118 0.00381999 
525 1 46.2434 -11.0342 -9.76031 -0.00980612 -0.0161712 -0.00642569 
534 2 46.7201 -10.9242 -10.842 0.0292195 0.00753624 0.0161903 
136 2 38.4347 11.8876 1.06551 0.0199543 0.0735024 -0.0568035 
515 1 47.1331 -10.5887 -8.44061 0.0120448 -0.0040598 0.00221092 
509 1 46.9455 -11.429 -7.22293 0.0342196 0.0179957 -0.0140754 
526 1 47.8202 -9.16135 -8.29368 -0.00649374 0.00273847 -0.019814 
538 2 48.3598 -8.54739 -8.96823 -0.00178692 -0.102124 -0.126063 
528 1 47.607 -8.79248 -7.02352 0.00695751 -0.0105233 0.0190393 
508 1 46.1313 -11.3015 -5.02756 -0.010939 -0.0267787 -0.000347932 
510 1 46.8033 -10.7518 -5.95744 -0.0073596 -0.00181719 0.00900721 
523 1 46.0931 -11.6336 -2.80295 -0.00438695 0.00182637 0.00860765 
514 1 46.1001 -10.6979 -3.64404 -0.00179152 0.00108515 0.00332796 
524 1 46.4428 -9.3337 -3.71558 -0.0289602 -0.041136 -0.0455387 
516 1 47.0722 -9.30467 -5.88506 -0.00194216 0.00658084 0.00860971 
536 2 46.0722 -11.4824 -1.70233 0.0775999 -0.0646402 0.0172503 
428 2 38.167 5.2145 3.37615 0.0615181 -0.0366826 0.00303474 
527 1 47.1265 -8.3701 -4.54251 2.40676e-05 0.00434052 0.00129068 
103 2 53.2302 -10.272 -1.10589 0.0050173 0.0302833 -0.0424903 
91 1 54.4983 -11.858 -0.101784 -0.00559408 -0.00393913 0.0227002 
88 1 53.6667 -11.0839 -0.386284 -0.0309772 -0.0181429 0.00733021 
107 2 57.9337 -11.5995 0.19985 -0.0794545 -0.0132786 0.0498864 
250 2 38.9058 11.4838 7.22536 0.147296 -0.0230846 -0.0156489 
293 1 36.03 -5.01121 9.09603 -0.0119612 0.0104721 -0.0217288 
294 1 36.8414 -4.23001 11.6033 0.0203492 -0.00414995 0.0364856 
416 1 37.7732 2.99705 3.20561 -0.00199211 0.0217736 0.0217961 
409 1 39.836 5.11103 7.19654 0.0242413 0.0377816 0.0153733 
424 2 40.5044 4.31565 6.56883 -0.0489724 -0.0948568 0.0421385 
404 1 37.7534 5.86473 5.61081 0.0113124 -0.00170917 -0.00712274 
419 1 38.3101 2.00999 3.46447 0.0119302 0.0109345 0.00126379 
431 2 39.0634 1.16717 3.94595 0.0270157 0.0121965 -0.0796659 
14 1 36.4368 6.68517 0.723764 -0.00740701 0.0181733 0.0310046 
413 1 36.975 8.92025 2.15268 -0.0137469 0.00265609 -0.0232406 
417 1 36.1518 11.565 1.59203 -0.00190377 0.00948561 -0.00170815 
398 1 37.5726 7.24308 5.07789 -0.00524586 -0.0064935 -0.0140594 
408 1 39.8085 10.0162 5.8757 -0.0155906 0.0102975 0.0192282 
407 1 37.669 11.5499 1.89063 0.00805986 0.0139621 -0.00726459 
414 1 37.9722 11.3294 3.32511 -0.0137735 -0.0183035 0.0211216 
418 1 39.325 11.4813 6.27936 0.0098878 0.0181193 0.0158434 
399 1 37.9772 9.99494 4.11405 -0.0165324 -0.0138017 0.0152577 
401 1 39.216 9.21938 4.75646 -0.00102541 0.0237283 -0.0154102 
415 1 38.9602 7.97282 5.0514 0.0225189 0.00036909 0.0232032 
397 1 37.3219 8.81607 3.56233 -0.00645086 -0.0224332 0.0307145 
17 1 36.4423 7.69383 4.19461 0.0188191 -0.0371144 -0.00749536 
410 1 36.9922 7.5642 1.65097 0.00153456 0.00101837 0.00305254 
406 1 37.4481 4.35004 3.50063 0.0224906 -0.0225198 0.00289224 
324 2 41.6697 -6.6195 8.97822 -0.0864611 0.0657336 -0.00487125 
312 1 40.6381 -6.70104 8.97103 0.0207542 0.0058475 -0.0130431 
311 1 39.7682 -6.77669 10.1244 0.045851 -0.00547082 -0.00700463 
308 1 38.5753 -6.7141 10.9274 -0.00651788 0.00176537 -0.00148362 
423 2 40.3001 5.5068 8.09492 -0.0791144 0.0843827 -0.0375727 
411 1 38.4206 5.33809 6.87303 -0.0132689 -0.00280196 -0.010252 
426 2 40.4314 9.51497 7.7549 -0.0236874 0.0181991 -0.0951572 
402 1 40.163 9.11219 6.75708 -0.0184625 -0.0152388 -0.0116951 
425 2 39.9854 7.00886 6.69542 0.0289154 -0.127933 -0.0634329 
400 1 39.7542 7.98047 6.34903 0.00699523 -0.016876 0.0121561 
300 1 36.3876 -4.90585 10.3839 0.000593448 0.00293246 -0.0157902 
307 1 36.3044 -6.93857 11.4101 0.023531 0.00990195 0.0140806 
412 1 37.0091 4.80909 4.84566 0.0108078 0.00265258 -0.013539 
429 2 36.0285 10.0392 0.273875 -0.0242839 0.062614 0.0664629 
298 1 37.5047 -6.45086 11.7983 -0.00766688 0.0141532 0.00252379 
317 2 36.6971 -2.65134 16.9789 0.00982019 0.0859168 -0.00951737 
323 2 38.2786 -4.67447 13.2124 0.0045758 0.104668 0.0299243 
292 1 37.2985 -5.17642 12.7156 -0.0025902 -0.0164955 -0.00127243 
289 1 36.1501 -4.78181 15.1592 0.00648842 0.00313193 0.0110976 
290 1 36.4386 -5.32046 13.9664 0.0143696 0.00487692 -0.00499496 
313 2 36.3872 -7.70845 15.3266 -0.0425471 0.0505987 0.055191 
291 1 36.2152 -3.28721 15.3928 0.00649857 0.00492861 -0.0217569 
66 2 47.6541 19.8934 -8.75682 0.0571482 0.0360034 -0.0166633 
57 1 47.9541 19.3948 -9.71195 -0.012124 0.0149164 0.0133003 
47 1 47.5569 18.1829 -10.4688 0.0120592 0.00476077 -0.00620634 
506 1 45.4173 35.6295 -5.48523 -0.00225625 0.00901634 0.00235465 
58 1 48.2455 20.5303 -10.5605 0.00511963 -0.023946 -0.0143083 
69 2 47.2703 23.2931 -9.46894 0.0124723 0.0808191 -0.0914339 
60 1 48.4427 23.1159 -9.74176 -0.0248562 0.00758003 0.00789504 
54 1 48.3505 21.7539 -9.87095 -0.0136375 0.00117715 0.0100002 
48 1 49.2479 23.6017 -10.8749 0.00773418 -0.0197357 0.00217909 
533 2 46.7292 33.6335 -10.0271 -0.104772 -0.0376089 -0.0262923 
135 2 47.1347 32.0054 -6.72295 0.0745089 0.00142882 -0.0396108 
282 2 46.402 31.9116 -6.44046 -0.0182709 0.0475396 0.0653593 
518 1 43.7691 33.5725 -8.76967 -0.00425435 -0.0079391 0.0306466 
511 1 44.4103 34.1194 -7.16016 0.00348803 -0.020307 -0.0281792 
521 1 44.9796 33.0561 -9.55443 -0.00025509 -0.0114201 -0.0151124 
530 2 44.9528 32.1094 -10.0235 -0.0276897 -0.0419251 0.0369711 
513 1 45.7965 34.174 -9.6449 -0.00629535 -0.012111 0.00571259 
505 1 45.2675 35.0742 -6.80964 -0.0188987 0.00951921 -0.00827746 
519 1 44.4079 33.6385 -5.03254 -0.0107429 0.0206115 -0.0323522 
531 2 43.9192 32.9331 -4.26631 -0.0312758 -0.04556 0.0121597 
517 1 43.6326 33.3572 -6.30922 0.0181361 0.00185838 -0.000747644 
529 2 42.6 32.9547 -6.47267 -0.0171192 -0.0502206 -0.0124631 
535 2 45.3657 33.9546 -2.7633 0.0956991 -0.0401047 -0.0901419 
512 1 45.0523 34.661 -4.45971 0.004519 0.00595016 -0.00755212 
520 1 45.5588 35.1746 -3.10773 -7.78928e-06 0.0189601 -0.0042482 
105 2 50.6777 33.4372 -0.855443 -0.0591203 0.0256906 0.0883198 
466 2 50.343 33.3356 -0.0935502 0.0170484 0.0275076 0.0202942 
92 1 56.9112 35.7262 -0.198212 0.0305608 -0.0141013 0.0177756 
82 1 55.6207 35.2448 0.196774 0.0246196 -0.0190594 -0.0155986 
94 1 58.5308 30.9924 -0.243241 -0.00855116 -0.00672982 0.00175474 
84 1 57.7345 33.2979 -0.685328 -0.00300788 0.033949 -0.00535548 
95 1 57.7904 34.7438 -0.931918 -0.00415764 -0.00408302 0.0168879 
96 1 58.8539 32.1931 -0.742383 -0.015456 0.0142893 -0.00229694 
78 1 56.4954 33.02 -0.111088 -0.00205599 0.0135346 0.00732399 
420 1 38.8976 12.1332 5.26211 0.0131739 -0.00674989 0.00641269 
507 1 45.7472 35.9263 -7.76609 -0.0125074 -0.00443408 0.00827022 
430 2 38.128 13.4933 3.72959 0.000981676 -0.0743871 0.0463619 
405 1 38.4955 12.5081 3.99186 -0.00298674 0.0314978 -0.00799418 
101 2 53.4079 29.4726 2.73677 0.00302277 0.00204141 -0.0283058 
90 1 55.705 29.1757 2.12631 -0.0162414 -0.0278491 0.0132446 
81 1 54.9915 30.4852 1.96727 -0.00544267 0.0142132 0.0200419 
93 1 56.6963 29.5669 1.06084 0.00709435 -0.0121568 0.0102641 
89 1 53.4958 30.4136 2.44127 -0.0345908 -0.0103134 0.00417892 
97 2 51.4527 32.9282 1.41309 0.00425097 -0.0316116 -0.0127259 
355 2 53.2441 33.3004 -0.853135 -0.023204 -0.0189334 -0.0483608 
86 1 52.3379 31.2793 2.2858 0.0166795 0.0152662 -0.0284095 
79 1 52.4503 32.414 1.28267 -0.0114214 -0.000515733 0.0139479 
76 1 55.2452 34.0135 -0.480886 0.00504203 -0.0109646 -0.0187513 
102 2 59.2144 30.201 -0.496927 0.00590272 0.123032 0.0220885 
83 1 57.2497 30.6284 0.283608 -0.0326602 -0.0250049 0.0130611 
77 1 56.4756 31.9336 0.709497 0.0189045 0.0127363 -0.0498895 
75 1 55.1786 31.8877 1.30732 0.00954136 0.00874963 0.00741726 
74 1 54.081 33.1695 -0.274583 -0.00592541 0.00191817 -0.00623605 
73 1 53.9673 32.5927 1.17058 -0.00810652 -0.000862797 -0.0221838 
106 2 60.0492 32.4176 -0.381755 0.00888891 -0.00391111 0.0777489 
522 1 45.9177 35.6972 -9.13898 0.00324938 -0.0208593 0.00652793 
45 1 47.1501 18.6145 -11.8958 0.0109376 -0.000338963 0.00866051 
41 1 48.6179 20.337 -11.9513 0.0189143 -0.000370187 -0.016913 
385 2 41.9859 17.9135 32.9413 0.0162547 0.033363 -0.000756324 
63 2 50.0226 20.8627 29.8701 0.0456232 -0.0302055 -0.000849563 
183 1 58.944 23.348 30.1998 -0.0186638 -0.00233519 -0.00020348 
185 1 59.8653 24.2016 29.7077 0.0178182 -0.0118647 -0.0133256 
198 1 57.1373 25.0393 29.3293 0.000968525 -0.035461 0.000202613 
133 2 56.3523 25.1636 28.4991 0.00982559 0.00831086 0.0243436 
201 1 58.0769 26.1929 29.2178 0.000626323 -0.0047296 0.00488641 
214 2 57.9914 27.1197 28.9292 0.00756088 -0.0295379 0.0280942 
191 1 59.214 25.4244 29.082 0.0194951 -0.0233352 -0.00499704 
570 2 41.7774 18.2376 32.1146 0.0032065 0.024569 0.0573765 
61 2 48.4489 16.2256 34.6106 -0.0220729 0.035139 0.0491499 
207 2 59.875 18.6386 32.2912 0.0660439 -0.000216854 0.027858 
50 1 48.8347 16.6558 33.7251 0.000143785 0.010743 -0.0272365 
53 1 50.1245 16.2282 33.2583 0.00135402 0.00319234 0.0178282 
62 2 50.4518 16.6889 32.4997 -0.0818091 0.00710463 -0.0417693 
39 1 48.1476 19.1015 35.2075 0.00466085 -0.0223177 -0.00633815 
43 1 48.1751 17.7914 32.708 -0.00357401 -0.00776452 -0.0210075 
49 1 48.6005 18.6498 31.7672 0.00749827 -0.0204656 -0.00337482 
37 1 47.8873 19.1581 33.7224 0.00703429 0.00259969 0.0479491 
46 1 49.2326 22.7503 33.6352 0.0131958 -0.000133888 0.0143038 
44 1 49.1056 19.8246 31.8101 -0.00450014 -0.0118255 0.0111333 
38 1 48.727 20.3441 33.1891 -0.0100507 0.0239905 -0.00705656 
42 1 49.3958 21.4226 35.4987 -0.0106394 0.0111945 -0.0168259 
51 1 49.2785 21.017 30.7068 -0.00326077 -0.0104035 -0.0149364 
52 1 49.0679 22.3022 31.4239 -0.00564023 0.0230992 -0.0119685 
55 1 48.9036 23.3147 32.3921 -0.00304097 -0.00213034 0.00458485 
40 1 49.4965 21.292 34.0174 -0.0088202 -0.0222415 0.0296694 
209 2 55.473 23.1956 31.311 0.0666906 0.0255913 0.0266778 
189 1 57.4047 23.8021 30.0388 -0.0192811 -0.0231052 0.0117231 
59 1 49.2355 23.7449 34.6721 0.00516948 0.025851 -0.0125756 
208 2 57.9273 19.8504 32.8568 0.0464982 -0.0848228 0.0231044 
193 1 58.6571 20.4979 32.5121 0.0122417 -0.0230582 0.0103372 
206 2 56.0883 21.7598 32.2704 -0.0105043 0.0222793 -0.0632727 
187 1 58.4191 21.801 31.9519 -0.0290957 -0.0252097 0.0113092 
194 1 56.9702 22.0814 31.8255 0.0248784 -0.00583865 -0.00819347 
181 1 59.3539 22.2907 30.8116 0.0149154 0.0135355 0.0159531 
197 1 56.4378 23.0914 30.8151 0.0104598 0.00700485 0.0149563 
195 1 59.9754 19.7457 32.1191 0.0218085 0.0105698 -0.00385472 
67 2 49.356 24.2102 31.8621 0.0312335 0.0364447 -0.0421624 
72 2 48.9284 24.7938 34.5081 -0.037771 0.0164217 0.0336185 
212 2 59.8208 28.7606 30.5039 -0.0194278 -0.0655909 -0.010535 
56 1 49.7657 23.0143 35.9003 0.0160843 -0.00100834 0.00179756 
65 2 46.1413 18.4162 35.5952 0.0682879 -0.0254678 -0.0435594 
31 2 72.1549 -6.23904 10.7724 -0.00105358 0.0557639 0.0736926 
20 1 70.5428 -4.2878 11.2922 -0.00979102 0.00821713 0.00741524 
28 2 74.7801 -6.42126 11.6329 -0.0825689 -0.106443 -0.0305445 
32 2 70.0985 -4.61314 10.4131 0.0740099 -0.0499514 -0.0886685 
19 1 72.5171 -5.36681 11.2703 0.0187516 0.0130432 -0.000726653 
36 2 68.4378 -3.94836 11.9666 -0.00422331 0.0629782 0.0761782 
16 1 73.672 -5.90279 11.91 -0.020479 0.00112379 -0.0149642 
421 2 68.9314 0.0100785 -11.8481 0.0555721 -0.00868908 0.0315379 
8 1 74.6123 -6.07035 14.4396 0.0119582 0.0253611 0.00398669 
137 2 66.9639 -11.4004 17.318 0.0486168 0.0129262 0.115365 
25 2 75.6829 -6.44099 14.2539 -0.0831795 0.0380815 -0.0485138 
171 2 63.9768 -0.484254 15.4039 -0.000253174 -0.00645359 -0.0697046 
151 1 65.468 -2.0982 15.8034 0.00518857 0.00514822 -0.0138914 
157 1 64.4796 -0.977609 16.2625 0.00879626 0.0119504 -0.00123806 
158 1 65.5884 -3.18203 14.9101 -0.00241923 0.0100372 -0.0236118 
145 1 65.8078 -2.9546 17.168 -0.00334172 -0.0249699 0.0192854 
174 2 69.673 -5.49149 15.4208 -0.0751708 0.0307746 -0.0546728 
165 1 69.4593 -4.80812 17.4514 0.0057578 0.00351259 -0.000670735 
173 2 65.9575 -4.99285 14.3471 -0.071697 -0.00679161 0.0131686 
162 1 68.8093 -4.94834 15.9944 0.0261692 0.0052497 0.0175669 
24 1 69.3605 -1.90533 13.9002 -0.00622608 0.00558487 0.00580062 
161 1 66.449 -4.20691 14.6546 -0.00594293 0.0188104 -0.00265494 
153 1 67.3821 -4.70924 15.8365 0.0151997 -0.0175713 -0.0124833 
483 1 70.7782 -4.61015 17.7163 -0.0201607 0.00823685 -0.0251158 
12 1 69.9794 -2.84864 13.0443 -0.0142381 0.0298674 -0.0242395 
147 1 66.7569 -3.95837 17.1539 -0.0234938 0.00692166 0.0131784 
493 2 71.8271 -4.15552 17.7424 -0.0346143 0.034147 -0.11644 
11 1 71.0346 -1.16345 15.552 0.00107458 0.00260523 0.00055387 
22 1 70.113 -0.819212 14.4279 -0.00999841 -0.00983269 -0.00791503 
30 2 71.656 0.0442909 17.5281 -0.0235001 -0.0184465 0.0217436 
5 1 71.4924 -2.42858 14.9116 -0.0291274 0.00901396 0.0128249 
6 1 71.3851 -2.9115 13.6395 0.00134074 -0.00899193 0.00544384 
10 1 71.7166 -4.47436 12.0138 -0.0211427 -0.0170199 -0.0257074 
13 1 73.1651 -5.42871 17.403 0.00494226 -0.00446626 -0.00591848 
27 2 75.9346 -5.38887 15.8714 -0.0126383 -0.0522898 -0.0217054 
7 1 74.8819 -5.51235 15.6463 0.00693004 0.00145337 1.0496e-05 
15 1 73.7553 -4.839 16.2617 0.00167506 0.00573863 -0.0161104 
1 1 73.5603 -5.66629 13.3705 -0.0116448 0.0153921 -0.00814935 
3 1 73.3022 -3.87887 15.1741 -0.00362796 -0.0261693 -0.0206964 
2 1 73.2753 -4.33079 13.74 0.0141416 0.0209124 -0.000686398 
18 1 72.6403 -1.78001 16.9014 0.00521098 0.0172413 -0.00280798 
9 1 72.7123 -2.63148 15.6681 0.00117112 0.0178522 -0.00114959 
4 1 72.2716 -3.61329 12.9634 -0.00261013 0.00854605 0.00455233 
21 1 71.7337 -0.684421 16.7472 -0.00461724 -0.00616021 -0.00866281 
26 2 73.6048 -1.5579 17.6462 -0.0693863 0.0169206 -0.0165303 
34 2 69.3856 0.0862718 14.3751 0.0182822 -0.0928718 -0.0154784 
164 1 61.9149 -6.7861 21.1673 -0.0075294 0.0107614 0.00307549 
390 2 62.8844 -7.64883 21.1658 0.0251509 -0.0314157 0.0730708 
393 2 61.052 -7.2035 21.7007 -0.0366803 0.0649294 -0.0293156 
167 1 62.497 -5.81362 20.8515 -0.0166824 0.00887264 0.01974 
502 2 66.9356 -7.7426 19.257 0.0431485 -0.0579396 -0.0145486 
499 2 67.9338 -9.61822 20.2259 -0.157541 0.0227243 0.0103468 
484 1 68.8488 -6.38784 19.1078 0.00488676 0.0399128 0.0136714 
487 1 67.9838 -7.48668 19.7217 0.0150068 -0.0169942 -0.0092652 
478 1 68.5512 -8.82199 19.5708 -0.0221884 -0.0143047 0.0276095 
492 1 68.2625 -9.60485 18.4352 -0.0278073 0.0152266 -0.00973804 
486 1 67.6061 -10.9048 18.3771 -0.042105 0.00720484 -0.0188774 
472 1 70.2144 -9.18559 19.9063 -0.0105706 0.0241553 0.00616083 
497 2 68.5989 -8.98631 17.5677 0.0365167 0.0615314 0.0013495 
476 1 70.2738 -6.57211 19.2165 0.00832677 -0.00287615 0.0125288 
470 1 70.8134 -8.02558 19.4117 0.00662564 -0.00921335 0.00312391 
473 1 70.6306 -11.3597 19.9058 -0.0345684 0.0013268 0.0071376 
490 1 71.2393 -10.3137 19.6365 -0.00971699 -0.0196371 -0.00540668 
501 2 75.0826 -8.18105 19.5793 -0.0288989 0.0761722 -0.0337144 
477 1 74.198 -8.36164 19.1423 6.19174e-05 -0.0162844 0.00428758 
471 1 73.1453 -7.44556 18.9164 -0.0226393 -0.00960045 0.02546 
479 1 72.2161 -8.39405 18.8863 0.00334091 0.0071489 -0.0125313 