ITEM: TIMESTEP
600000
ITEM: NUMBER OF ATOMS
576
ITEM: BOX BOUNDS pp pp pp
-1.2000000000000000e+01 8.4000000000000000e+01
-1.2000000000000000e+01 3.6000000000000000e+01
-1.2000000000000000e+01 3.6000000000000000e+01
ITEM: ATOMS id type x y z vx vy vz 
352 2 -11.4207 1.92189 3.46032 0.0604492 0.0778399 -0.0891954 
278 2 10.2185 -7.34343 11.7613 0.100026 0.0596129 -0.134827 
250 2 0.341638 9.74524 11.1596 -0.025526 -0.0181541 0.0325463 
283 2 10.0683 -7.31826 12.7351 0.022104 0.047786 -0.0236388 
142 2 10.7623 4.91648 21.2049 0.00257001 0.0305917 0.035134 
130 1 11.5828 5.83623 21.3963 0.0161821 -0.000630711 -0.00990371 
526 1 8.0975 9.15626 22.946 -0.00167764 -0.0011108 0.0189606 
538 2 8.30502 8.16872 22.6442 -0.0520043 -0.041233 -0.01936 
528 1 8.91803 10.063 22.6195 -0.008391 -0.00359152 -0.00462805 
510 1 8.54685 11.8963 23.7753 -0.00926657 0.014583 0.00997568 
119 1 11.66 6.20686 22.8076 0.0119417 -0.0104786 0.0209922 
516 1 9.22488 11.5904 22.6197 0.00316076 -0.0108326 -0.0113021 
374 1 -11.4832 -11.1059 28.0954 -0.00632482 -0.00287052 0.00996004 
386 2 -11.1842 -11.0217 27.0768 0.0107203 0.0310815 -0.0393586 
180 2 11.379 -5.79633 27.6986 -0.0253032 -0.00608093 -0.0322774 
168 1 11.6825 -5.41573 28.6638 0.0141 -0.00558489 -0.0263177 
156 1 10.6305 -5.2334 29.6657 -0.00960556 -0.0108806 -0.0264898 
167 1 9.12167 -5.38569 29.7087 0.0336279 0.00921397 -0.0299688 
141 2 10.3491 5.19895 24.2504 0.0383433 0.0157984 -0.0304139 
129 1 10.786 6.15209 24.0303 0.000801048 0.0254149 0.0159046 
534 2 7.87928 7.72888 25.3637 -0.00219444 0.00944768 -0.00242345 
515 1 7.27729 9.70144 24.1613 -0.0299481 0.00700206 0.00834161 
138 2 10.3033 6.39303 26.3178 0.104252 0.0673431 0.0749362 
530 2 8.34108 10.6776 29.6522 -0.0437672 0.0248591 -0.0175905 
533 2 6.89164 8.98258 28.6364 -0.0245806 0.0268468 -0.0388808 
518 1 7.91116 10.8516 28.6301 0.00737778 -0.0202158 -0.00993131 
125 1 11.6208 8.23133 26.9971 0.0119846 0.00371196 0.0136323 
509 1 7.9397 10.8471 24.7237 0.0100138 -0.000937527 0.0346068 
525 1 7.04851 8.41457 25.2497 -0.0247602 0.0165955 0.0137404 
126 1 10.9093 6.55592 25.4055 0.00414863 0.0120216 0.00882924 
521 1 6.89133 10.0654 28.193 0.0360056 0.022966 0.0141732 
522 1 6.04761 8.76869 26.2288 0.00184282 0.0297888 0.0158533 
513 1 6.72325 10.0557 26.8029 0.0170763 0.00375836 -0.003086 
507 1 7.34665 11.0824 25.9367 0.00981312 -0.00294219 0.0181017 
137 2 10.7331 7.74835 27.6389 0.0420414 0.00670731 0.0375897 
117 1 11.7423 7.68043 25.7088 0.0166901 0.010009 0.00258429 
369 1 -11.9218 -11.044 30.6462 0.0103101 0.0179705 -0.00748055 
495 2 -11.2491 -9.60453 32.5641 0.0218927 0.0580548 0.0794766 
378 1 -11.6693 -10.4017 32.2336 -0.007603 0.0168701 -0.010807 
172 2 7.97355 -0.218487 32.6394 9.49627e-06 -0.0490869 -0.0725681 
146 1 10.7547 -2.09129 32.4532 -0.017754 0.011658 0.0167544 
152 1 9.82895 -0.933967 32.29 -0.000291549 0.0118339 0.0074068 
175 2 6.68281 -2.66083 32.1487 -0.0182138 0.0448425 -0.0908405 
164 1 8.50355 -4.33327 30.5441 -0.00368994 -0.00823719 0.0104873 
163 1 7.80962 -2.31499 31.8269 0.016227 -0.0048122 0.0192422 
160 1 8.40402 -1.06828 32.1263 0.0251929 0.0114345 0.00777535 
148 1 10.3806 -3.10018 31.3213 0.00118716 -0.0329211 -0.0312689 
150 1 11.2757 -4.2914 30.7003 -0.0135308 -0.00103872 -0.0139392 
154 1 9.00959 -3.18104 31.4038 0.012618 0.0267406 0.038627 
159 1 10.5898 0.111074 33.1102 0.0181864 -0.0199069 -0.00672946 
157 1 11.7873 0.0319434 33.8967 -0.00811617 0.0184484 -0.0053541 
169 2 9.80005 0.884971 32.9672 0.00431097 -0.086204 0.0149689 
171 2 11.9967 0.654577 34.6649 -0.128453 0.0825723 -0.0541848 
176 2 -6.89933 23.4303 13.0565 0.115103 -0.0750939 -0.0309188 
527 1 9.71585 12.7303 22.0117 0.00517337 -0.00849026 0.0119582 
514 1 9.1332 14.3894 23.5853 -0.0118958 -0.00825498 0.0147177 
524 1 10.1689 14.1423 22.3769 0.0206701 -0.00330553 0.0237129 
536 2 10.7203 14.6866 21.7247 0.0256856 -0.0552083 0.0449422 
535 2 10.0218 16.479 23.5546 0.0274282 0.0246245 0.00513804 
508 1 8.67896 13.1641 24.1944 -0.0044917 -0.0143908 -0.0158893 
529 2 7.77184 13.3447 29.421 0.0721678 -0.0659571 -0.0367783 
531 2 9.00677 15.5025 28.2305 -0.00311153 0.0567014 0.0103163 
517 1 7.85062 13.4945 28.2679 0.0133046 -0.0289738 -0.0481345 
519 1 8.38571 14.7202 27.6817 -0.002665 0.0168951 0.0204258 
506 1 8.23377 13.3058 25.5028 -0.0139975 0.000181219 0.0201363 
532 2 9.62132 16.4926 26.2688 -0.00695958 0.031806 0.0457009 
512 1 8.57574 14.4593 26.2437 -0.00350447 0.018813 -4.33422e-06 
520 1 9.48678 15.5181 25.5551 0.0126394 0.00157291 -0.0110364 
523 1 9.62573 15.5868 24.2247 -0.00185998 -0.00289978 -0.00070861 
511 1 8.02241 12.1646 28.1002 0.00496541 0.0106473 0.0173743 
505 1 8.11959 12.3156 26.4892 0.0111064 0.00383644 -0.0167903 
87 1 -0.854529 21.9348 24.0508 0.023624 -0.00525138 -0.0159856 
99 2 -2.40669 21.2013 24.5427 -0.0373849 -0.0389666 -0.0925927 
85 1 -1.27467 21.2295 24.779 -0.0230868 -0.0107311 -0.034767 
80 1 0.646243 22.3233 24.0717 -0.0108106 0.00147388 -0.0103067 
100 2 1.43179 21.792 24.3469 -0.00395544 0.0650755 0.014591 
71 2 9.4961 21.8906 26.5628 0.0222182 -0.00978038 0.025234 
504 2 9.85476 22.2415 27.3826 0.0391175 0.0195961 -0.0322006 
467 2 11.3705 21.0863 26.9176 0.00848083 0.0531925 -0.162065 
463 2 11.5851 18.5511 27.3103 0.0368923 -0.0569927 -0.0766554 
388 2 -6.82365 34.565 28.2818 -0.00654757 0.0114233 0.0433969 
379 1 -10.8003 31.0709 29.8262 -0.00698176 0.0127192 0.006326 
362 1 -10.7554 33.5753 29.9646 -0.00511898 0.0122931 1.27347e-06 
376 1 -10.3639 31.5337 28.6605 -0.00567842 -0.0123639 -0.000348999 
368 1 -10.0942 33.0813 28.881 -0.00353509 -0.015556 0.00522523 
391 2 -10.0504 30.5253 28.1901 -0.00909582 -0.00900467 0.0950691 
361 1 -10.935 34.968 29.6172 -0.00265408 0.00565314 0.012585 
375 1 -8.78141 33.361 28.5131 0.0128622 -0.00246718 -0.00182024 
373 1 -7.53728 33.6433 28.1885 -0.00453236 -0.0269147 -0.025435 
367 1 -10.4974 35.8641 28.5926 0.0273125 0.00741881 0.0084032 
387 2 -7.29302 32.8731 27.4555 -0.0417484 0.0143628 -0.0221553 
385 2 -10.0992 35.2594 27.6753 -0.104189 -0.0310168 0.060507 
364 1 -11.7127 32.7275 30.6425 -0.0263921 -0.0275169 0.000356225 
370 1 -11.4651 31.33 31.0839 -0.00938455 0.0158229 0.00703689 
363 1 -11.6188 35.4713 30.7647 0.0123054 0.00841719 0.00361856 
365 1 -11.9592 34.7182 31.9972 -0.00727226 0.00165619 0.0119204 
282 2 26.0641 -7.27374 2.50806 0.0606624 0.066555 0.0313115 
135 2 26.8499 -7.5344 2.76988 0.0407448 -0.00634414 -0.0986603 
572 2 23.956 -1.74964 15.2854 -0.0743974 -0.0411035 0.0959822 
210 2 19.1618 -5.37789 17.8265 -0.0470658 -0.0706963 0.00744122 
552 1 25.6372 -1.07725 15.4632 0.00472376 -0.0170917 0.0408162 
563 1 24.6033 -1.02425 16.0317 -0.0123084 -0.00720231 -0.0401784 
560 1 27.062 -0.776366 15.1402 -0.000889673 0.0152652 0.010641 
550 1 28.1201 -0.0368873 14.793 0.00565542 0.00754618 -0.0150945 
544 1 29.3836 -0.201129 13.8361 0.00926765 -0.0126154 -0.00765796 
545 1 31.3046 -0.625971 12.5477 0.00696939 0.0206936 0.0219145 
551 1 32.3811 -1.65294 12.7734 -0.0150175 -0.013545 -0.0181938 
546 1 30.2577 -1.24357 13.477 -0.020957 0.0017603 -0.0201065 
561 1 33.7134 -1.29521 13.0236 -0.0346053 0.00933161 -0.00997083 
575 2 30.0007 -2.33273 13.601 0.0884921 0.0161764 0.0248888 
562 1 31.783 -3.06046 13.3333 -0.00576029 0.00164544 -0.00564616 
564 1 32.7156 -3.79372 14.0636 0.00441559 0.0264783 0.00408203 
421 2 33.4707 -2.92558 14.0682 -0.0250971 -0.0438031 -0.0196247 
558 1 34.3255 -0.281072 12.3713 0.0201951 -0.00610889 -0.0120508 
573 2 34.3977 -1.79309 13.4727 -0.041908 0.0404786 0.0411217 
576 2 31.9953 -4.01401 14.9239 0.0821359 0.0480622 0.0116019 
540 2 31.0343 -2.62132 15.7043 -0.00377932 0.0541481 -0.0372576 
537 2 31.2181 -2.46133 16.7561 0.0466119 -0.00703266 -0.0177337 
570 2 35.5789 -0.232671 12.3928 -0.0633949 0.0430983 -0.0715648 
568 2 28.8719 1.41822 17.2746 0.0549255 0.0966795 -0.0520525 
571 2 27.1757 2.13985 14.6056 0.0124794 -0.104405 -0.0755891 
559 1 27.7332 1.45147 15.317 -0.00727773 0.00602117 0.0148061 
556 1 29.075 1.8081 16.2229 -0.0173598 -0.00872833 0.00285924 
543 1 31.9064 0.683016 12.4248 -0.00613037 0.0319956 0.0150426 
549 1 33.4744 0.951471 12.125 -0.00952769 -0.0188166 0.00939674 
553 1 32.2887 3.23852 15.2964 0.00528221 -0.00331095 -0.00299002 
541 1 31.1943 1.59134 13.2334 0.00726578 0.0113546 -0.00429517 
542 1 30.0953 1.0779 13.9911 -0.00839076 -0.0242027 0.0038829 
555 1 30.3614 1.77573 15.4297 -0.0100924 0.00820182 -0.0146335 
548 1 31.6165 2.35488 16.1502 -0.00442802 -0.00162752 0.00619059 
569 2 31.0973 3.5995 13.2615 0.0417813 -0.00804034 0.0885432 
547 1 31.9075 3.04062 13.7895 -0.0107561 0.00739272 -0.0193776 
565 2 33.0389 3.70067 15.6498 -0.0993016 -0.00509375 0.0439092 
567 2 32.0891 1.9015 16.9502 0.0150257 -0.0295648 0.0360116 
554 1 33.2983 3.07217 13.0754 -0.0226281 -0.0214893 -0.0304916 
557 1 33.9259 2.17981 12.5609 -0.0224876 -0.0143413 -0.00282932 
566 2 34.2619 3.79834 13.342 -0.0196633 0.10509 -0.0289084 
139 2 15.7354 5.90266 22.2553 0.0416788 -0.0328167 0.0334169 
131 1 14.6459 7.7846 20.0689 0.017486 -0.0186254 -0.0018127 
143 2 14.8872 7.29308 19.1021 0.0385204 -0.0460343 -0.00213474 
128 1 15.0194 9.02796 20.4457 -0.00719732 -0.0156639 0.0221388 
120 1 13.5825 7.50547 21.067 0.00798775 -0.0253523 -0.00824418 
132 1 12.2669 6.58843 20.5717 -0.000153688 -0.0089853 0.000224573 
118 1 16.1772 6.62763 22.9666 -0.00565933 0.0318657 0.00969127 
114 1 13.9181 7.57729 22.4186 0.00857048 -0.0124603 0.0155994 
140 2 15.9522 9.64003 19.6911 -0.0314655 0.0480124 -0.0446142 
113 1 12.5504 7.33987 23.2665 -0.00780849 0.00825097 -0.00335618 
112 1 15.1078 7.55682 23.2549 -0.013138 -0.00670432 -0.00561514 
127 1 17.3825 6.92579 23.4974 -0.00473644 -0.0260447 0.00175464 
177 2 18.0885 6.33149 22.9448 -0.0362626 0.0549968 0.0403226 
178 2 13.2098 -4.19998 28.0766 -0.041574 -0.0199379 0.000214993 
166 1 12.9047 -4.65976 29.0132 0.0320967 -0.0144633 0.0219565 
124 1 17.4771 7.93556 24.7373 -0.0158523 -0.0263471 -0.00985214 
110 1 15.2382 8.2071 24.6607 -0.0103761 -0.00986754 0.0206949 
116 1 16.5241 8.76229 25.2375 -0.0103915 0.0283658 0.0156861 
111 1 12.6646 7.95301 24.5772 -0.00846984 -0.0015249 0.0307484 
109 1 13.9816 8.23678 25.2241 0.00467061 0.00998215 0.0188901 
123 1 16.1057 9.17519 26.62 -0.0209649 -0.0150177 0.00960242 
121 1 14.8518 9.61347 27.2829 -0.00430026 -0.00328475 0.00933341 
115 1 13.8669 8.65016 26.7626 -0.00995032 -0.00762541 0.00900243 
122 1 12.9451 8.16373 27.6632 -0.00529754 -0.0254009 0.0071921 
134 2 12.5216 8.6798 28.6069 0.0274912 0.0293758 0.00970282 
136 2 18.6034 7.6621 24.9693 0.0077696 -0.0508329 0.00728153 
173 2 15.2581 -2.87477 35.0453 0.0520494 -0.0310989 0.0344902 
153 1 14.1613 -3.51989 33.1158 -0.0156682 -0.00586669 0.000828258 
147 1 12.8168 -3.37609 32.5211 -0.0132487 -0.0197459 0.00058528 
155 1 13.5392 -4.33722 30.3591 -0.015312 -0.0104536 0.010473 
158 1 13.8575 -1.422 34.0103 0.0243457 -0.00634435 0.00575039 
165 1 14.889 -4.39418 30.7412 0.0163945 0.000196244 0.0108356 
174 2 16.14 -3.61216 32.5972 0.0887664 -0.0774812 0.0767383 
161 1 14.4715 -2.7077 34.2155 0.00112319 -0.0156216 -0.00639367 
162 1 15.2429 -3.76619 32.1065 0.00623083 0.0237796 -0.0115449 
149 1 12.4892 -4.18674 31.3905 0.0139442 -0.0188045 0.0172334 
151 1 12.4807 -1.23219 33.7167 -0.0129426 0.00180497 0.0279237 
170 2 14.1982 -0.829701 34.9248 -0.0430779 0.0358228 -0.0325156 
145 1 12.0225 -2.32402 32.8911 0.00816166 0.00616442 -0.0080217 
105 2 19.1114 23.5951 -11.0054 -0.00225428 0.0324227 -0.0950615 
466 2 18.7681 23.7588 -11.3982 -0.096336 0.0315901 0.0104951 
341 1 34.6971 29.1698 9.51595 -0.00749548 0.00899781 0.00740308 
353 2 33.7433 28.7868 9.24956 -0.0809051 0.0616008 -0.101025 
354 2 32.6747 29.7875 11.5548 -0.0606351 0.0241565 0.0289887 
350 2 35.778 28.4415 7.92396 0.0385514 -0.00170868 -0.000732432 
338 1 35.9281 29.0714 8.82293 -0.000244865 0.0206229 0.0142374 
333 1 34.8359 30.2218 10.6131 0.00155551 0.0136742 0.0250751 
342 1 33.6786 30.4046 11.4488 0.0161827 0.00241396 0.0460128 
329 1 35.9758 32.2236 11.7004 -0.0152538 0.000554425 0.00746487 
345 1 33.6008 31.7717 11.9183 0.00685694 0.0282943 -0.0101345 
346 1 34.8092 33.4491 13.3402 -0.00592139 -0.0230434 -0.0104083 
335 1 34.6673 32.7096 12.1472 0.00267015 -0.0253935 0.00961496 
358 2 34.051 33.5799 14.1084 -0.0463908 0.076343 0.0161229 
216 2 32.7381 32.1956 12.5342 -0.108844 -0.02921 -0.00539615 
468 2 14.729 22.7744 23.7332 -0.0615025 -0.0630587 0.0438981 
460 2 13.7156 17.2512 29.4971 0.0251779 0.0745265 0.0553184 
447 1 15.8411 17.3785 29.287 -0.00179266 0.00104381 -0.012178 
459 2 15.309 16.6329 29.7431 0.0270233 0.0986216 -0.0374649 
448 1 13.6303 17.9214 28.6166 -0.00650302 -0.00120994 0.00443844 
452 1 12.6446 20.9009 26.7176 -0.019057 0.00794138 -0.0165609 
444 1 14.4657 21.6481 25.4656 8.29867e-05 -0.0122566 -0.0101019 
445 1 17.0881 18.0781 29.8456 0.000591747 0.0172476 0.00472345 
439 1 17.5306 19.3774 29.4024 0.0252792 0.0310246 -0.025959 
440 1 14.9734 18.1487 28.4832 -0.0128062 -0.0264548 0.0101558 
433 1 16.7659 20.0174 28.3631 0.00279073 0.010675 0.00854697 
451 1 12.8112 18.5364 27.6321 0.014548 0.00326159 0.00218535 
434 1 15.8241 19.2397 27.5481 0.0268533 -0.013722 0.0265561 
436 1 14.7855 20.2126 27.433 0.0149313 -0.00969113 -0.0190149 
442 1 13.4203 19.843 27.4155 0.0142459 0.0167359 0.0106468 
435 1 17.4333 21.2314 27.6216 0.0361793 -0.029926 -0.00134615 
438 1 15.1603 21.1908 26.4906 0.00471747 -0.00927811 0.00760368 
437 1 16.4305 21.6655 26.6254 0.0159523 -0.0355782 -0.0241922 
455 1 12.9783 21.6031 25.8128 -0.010881 0.00843675 0.0206575 
456 1 15.2101 22.1559 24.5509 -0.0111218 -0.00207109 0.00422205 
454 1 16.5211 22.3284 25.3322 -0.00159979 0.00170187 0.0141326 
443 1 17.779 23.0204 25.0731 0.00744731 0.0102389 0.00304845 
453 1 18.6589 23.7784 25.9548 -0.0115046 -0.00867328 -0.014559 
462 2 20.5411 23.3211 27.0489 0.00549271 -0.0873274 0.00590757 
441 1 18.5752 22.1444 27.7922 -0.000922509 -0.00243878 -0.0235545 
449 1 18.967 21.7254 29.1654 -0.00294555 -0.0122099 0.002207 
446 1 18.6322 20.4646 29.7166 0.00448408 -0.0164717 0.0240905 
461 2 19.464 22.3971 29.9353 -0.0683072 0.0137727 0.0734646 
450 1 19.4269 22.8571 26.6936 -0.00800483 -0.0227441 -0.0022683 
465 2 18.7743 24.7708 26.377 -0.0232637 0.0699411 0.0348505 
457 2 17.8419 17.6943 30.693 -0.020448 -0.0205868 0.0152732 
458 2 19.1364 20.2205 30.5621 -0.0884356 0.00120109 -0.0482904 
464 2 58.551 -1.62849 -6.27118 -0.188291 0.00825418 0.0869695 
102 2 59.1524 -5.11564 -6.12637 0.0604996 0.0185426 -0.0634242 
64 2 59.3921 -1.49455 -7.0993 0.121527 -0.0485781 -0.0193464 
106 2 59.0896 -7.29917 -2.08653 0.0754184 -0.0230559 -0.0981825 
93 1 59.6553 -6.05935 -4.5078 0.0139522 0.0050026 0.00679483 
90 1 59.8602 -5.78426 -5.77209 0.0156746 -0.0181029 0.00943104 
496 2 42.0112 2.77803 19.422 0.00170025 0.106153 -0.0422496 
261 1 51.2048 -7.26035 29.3552 -0.0130441 0.00255736 -0.0144576 
270 1 50.3071 -8.43282 29.5844 -0.00118847 -0.0142326 0.0143807 
285 2 49.9692 -9.4951 29.1522 0.071904 0.0439581 -0.055013 
281 2 51.0927 -6.14919 27.6423 0.0107889 0.0221803 0.03178 
269 1 51.9742 -6.53357 28.3546 -0.0196541 -0.0322876 0.012014 
266 1 52.6325 -5.27864 28.7151 -0.00661007 0.00556155 -0.0177228 
259 1 53.5891 -5.55297 29.9192 -0.00547571 -0.00179553 0.00581078 
265 1 54.9529 -4.98676 29.9368 -0.0100229 0.00996063 0.0179364 
277 2 55.3749 -4.44496 29.0476 0.0635629 -0.0679956 -0.0400119 
35 2 53.8697 4.96128 24.6537 -0.0151614 -0.00823749 0.0470304 
36 2 55.8209 5.35765 24.4049 0.0179169 0.0344516 -0.0162619 
28 2 50.0784 8.00999 26.9285 0.0103006 0.00521231 0.0555572 
32 2 51.2184 6.1362 25.7425 0.0562509 0.00203164 0.0807762 
20 1 52.3731 6.59724 25.7955 0.00136055 -0.00826967 0.00039172 
23 1 53.5729 6.14673 25.1248 -0.0100341 0.0327767 0.00540193 
4 1 53.5337 8.41443 26.6157 -0.00796685 0.0132867 0.0060246 
19 1 51.6252 8.27494 27.8572 -0.00240011 -0.0019692 -0.00939076 
10 1 52.3239 7.60972 26.577 0.0219501 0.0199343 -0.000889826 
16 1 50.2529 8.20736 27.9599 0.0185991 0.0138466 -0.0103861 
8 1 52.7839 8.72309 28.8199 0.0134386 0.0117564 -0.0242553 
2 1 53.5296 9.3386 27.7968 0.0165138 0.00817511 -0.0295385 
31 2 49.7408 8.76527 28.7774 0.00703092 0.0621781 0.0295386 
15 1 53.7836 8.209 29.8691 -0.015147 -0.0111144 0.0140578 
34 2 57.958 6.08338 26.2979 0.0109557 0.0214617 0.0479758 
24 1 56.1527 6.14393 25.075 -0.0040419 -0.0057766 -0.0150452 
6 1 54.7056 8.26514 25.8604 0.00324361 -0.0154315 -0.00665647 
21 1 58.7188 8.27834 26.7684 -0.00742142 0.012646 -0.00292925 
12 1 54.7549 6.77476 25.2011 0.00323957 0.0111184 -0.00897597 
22 1 57.2641 6.62724 25.7713 0.0196399 -0.00366894 0.0206793 
5 1 55.9559 8.62106 26.4704 0.012424 0.0019954 0.0220509 
3 1 56.1095 8.88565 27.937 0.00367648 0.00186261 0.0259127 
11 1 57.3169 8.0307 26.2633 -0.0113872 0.0275745 -0.00764161 
9 1 57.4062 8.83409 28.7492 -0.0047694 0.0227679 0.0130097 
30 2 57.3195 9.15528 29.8777 -0.0172276 -0.00739215 0.0632114 
1 1 54.9592 9.5936 28.3197 0.0165425 -0.00711293 0.0350133 
18 1 58.774 8.56414 28.2925 -0.0187279 0.0192676 -0.0028247 
252 2 57.3186 10.9169 29.7244 -0.0503337 -0.0289579 0.0223479 
7 1 55.2259 10.0073 29.7082 0.0263946 -0.01007 -0.0401866 
286 2 47.2146 -6.68935 32.3201 -0.00885211 0.0922932 0.0452667 
288 2 47.6458 -6.60845 34.414 -0.081007 -0.0197423 0.053523 
273 1 49.1246 -7.85344 30.2909 0.0100775 0.0162495 0.0121217 
255 1 51.6735 -7.10382 30.7001 0.00487638 0.013054 0.019906 
263 1 49.5727 -7.52057 31.4335 -0.0102945 0.00449961 0.0251065 
257 1 50.9318 -6.99571 31.8001 0.00872106 0.02965 0.0187717 
274 1 48.2969 -7.14626 32.3587 0.0143353 -0.00756877 0.00130122 
276 1 48.596 -6.74511 33.5591 -0.0193893 -0.000476605 0.0329936 
258 1 51.1258 -6.80841 33.1752 -0.0172457 0.0154875 -0.00474743 
264 1 49.9642 -6.90521 34.0431 0.00943903 0.00693598 -0.0237515 
275 1 50.4644 -5.87526 34.8474 -0.0163548 0.00566577 -0.00114615 
253 1 52.746 -5.96858 31.1321 -0.0182007 -0.010026 -0.0189642 
272 1 51.4027 -4.8353 35.334 -0.00637573 0.0130726 0.0130806 
262 1 52.4468 -4.77541 34.1805 0.0159903 -0.00972213 -0.0238322 
256 1 52.2645 -5.8003 33.3467 -0.00870955 -0.00656445 -0.00344973 
284 2 53.5934 -2.98899 35.181 0.0214902 -0.00376902 0.0185159 
271 1 53.5441 -3.72274 34.2789 -0.0188148 -0.00906762 -0.00343179 
254 1 53.2363 -5.31597 32.2664 -0.00309735 0.00241739 -0.00113706 
268 1 53.6417 -3.17833 32.9428 0.0179109 -0.0109878 0.0260911 
280 2 53.8361 -2.1964 32.8157 -0.0785861 0.0221284 0.0262836 
287 2 50.9504 -3.91906 35.8479 -0.0021968 -0.023093 -0.0825682 
267 1 55.1959 -4.17731 31.0228 -0.000319425 -0.0164972 -0.00179786 
260 1 54.0718 -4.13903 31.9053 -0.0129379 -0.00788795 -0.00618903 
279 2 55.8962 -3.32241 31.1145 0.00938765 -0.0151585 0.0304899 
27 2 52.9796 7.49178 30.3187 -0.046854 -0.0047549 0.0546991 
25 2 54.9764 9.12521 31.7509 0.0347017 0.0597608 -0.0206007 
13 1 54.9638 8.81611 30.6782 0.00181645 0.000995646 -0.00418214 
357 2 59.2568 10.972 30.2421 -0.00563013 0.0494462 -0.0554968 
26 2 55.5413 11.0158 30.1456 -0.047907 -0.107412 -0.0421566 
240 1 58.272 11.3912 30.0414 0.00635043 0.00596238 0.0160504 
476 1 47.2651 22.1537 -7.13909 -0.0141687 -0.0176765 -0.00901012 
484 1 46.7398 22.2775 -8.67675 -0.0164772 0.0101863 -0.0133824 
499 2 45.7981 21.9317 -9.05405 0.0483266 0.0795434 -0.00460609 
487 1 47.9281 22.5698 -9.28656 0.00213658 0.0201455 -0.000799292 
481 1 46.008 22.3046 -6.12406 -0.00411399 -0.00493293 -0.0118765 
483 1 44.8007 21.4424 -6.23418 -0.00300787 0.00260932 0.000620399 
493 2 45.1223 21.4184 -7.33297 -0.0718392 0.0139935 -0.0526728 
470 1 48.394 22.827 -6.65927 0.00454922 -0.0122139 -0.0206557 
472 1 49.3702 23.6065 -7.50387 0.00875384 -0.00875644 -0.0223323 
503 2 49.1934 23.8754 -9.9091 -0.00361612 0.0301362 -0.0459127 
478 1 48.8999 23.5698 -8.89382 0.0162911 0.0356025 -0.00124673 
473 1 49.8974 24.805 -6.79828 0.0195596 -0.00948259 -0.0154307 
480 1 49.7786 25.7679 -7.90624 -0.00876814 -0.0124288 0.0240755 
490 1 50.0244 26.0068 -9.17176 0.00160642 0.000734034 -0.0202387 
492 1 49.7926 26.2901 -10.3292 0.0110916 -0.00878344 0.00368061 
489 1 50.3127 26.5865 -11.7193 -0.0280623 0.00259799 0.0225047 
469 1 46.1752 23.0491 -4.74139 0.00544422 0.0113914 0.00690126 
471 1 47.5761 23.1173 -4.38785 0.0331791 0.000230094 -0.0209707 
482 1 45.0074 23.8271 -2.49103 -0.00938562 0.0154786 0.0102918 
475 1 45.1083 23.0694 -3.72047 -0.00246624 0.0041219 -0.00876701 
108 2 43.9168 23.3161 -3.85695 -0.101919 0.025092 -0.126591 
498 2 46.8431 22.9333 -0.860933 -0.0450695 -0.0154982 -0.00280174 
485 1 46.2164 23.2421 -1.9182 0.00216292 0.00143183 -0.0153187 
494 2 44.2839 23.5313 -1.86846 -0.0495658 -0.00801962 0.0376195 
477 1 47.3738 23.5156 -2.95518 -0.0107105 -0.00915682 -0.014598 
479 1 48.7041 23.4367 -5.27662 0.0162391 -0.00710302 -5.89505e-05 
488 1 48.5881 23.7036 -2.26565 -0.0297016 -0.00078116 0.024846 
500 2 50.1785 22.4605 -1.4398 0.0441387 0.0012795 -0.0375641 
491 1 49.7356 23.5685 -1.8044 0.0238362 -0.00259195 0.00273907 
474 1 49.4801 24.6639 -5.43145 0.0396293 -0.00409276 -0.0131805 
497 2 49.8302 25.3545 -4.90729 -0.0310977 -0.105747 0.0105706 
501 2 50.2047 24.2267 -1.05612 0.0198971 -0.0778286 0.0285169 
337 1 38.4545 29.3063 8.73359 -0.00112971 0.0205792 0.00477234 
351 2 40.3423 29.9911 8.05122 -0.0462151 0.0164151 0.0558235 
331 1 37.1687 29.7113 9.41262 0.0193241 -0.00371026 -0.0273142 
349 2 38.6079 28.4561 7.91583 0.106508 0.0559308 -0.000249623 
327 1 36.0134 30.8025 11.0964 -0.00793614 -0.0325035 -0.00801747 
339 1 39.5026 30.3153 8.82817 -0.00330665 -0.00725469 -0.0176438 
326 1 38.4131 31.2221 10.8326 0.0109973 -0.020671 -0.0184078 
332 1 39.6536 30.9169 10.0028 0.0209467 0.00490959 0.00110011 
325 1 37.2339 30.4758 10.5093 -0.0115483 0.0071961 0.00171771 
328 1 38.2172 32.3982 11.7605 0.00657666 0.00598681 -0.00401891 
340 1 40.9501 31.2762 10.8764 0.000324449 0.00978965 -0.00140513 
343 1 40.5864 32.2097 11.8647 -0.00211664 0.0229882 -0.021162 
334 1 39.3509 33.1484 12.0401 -0.00657583 0.00276405 -0.00164469 
330 1 37.0344 32.8775 12.1091 -0.00233893 0.0162329 -0.0109702 
356 2 40.5986 34.7194 12.5427 0.0394192 -0.0223042 -0.0460661 
336 1 37.1392 33.8697 13.1337 -0.00801011 -0.00608497 -0.00186466 
347 1 38.4865 34.5686 13.2891 -0.0211025 -0.00497438 0.00128231 
344 1 39.6331 34.3328 12.5309 -0.00105897 -0.00946298 0.00205482 
359 2 38.5813 35.5399 13.7663 -0.0411876 -0.0703154 -0.0111905 
360 2 36.3554 34.9844 14.3859 0.0368331 -0.0168479 -0.0163802 
348 1 36.0552 33.9769 13.7351 0.00164836 0.00175728 -0.02214 
234 1 55.4777 14.5446 28.6982 -0.0177116 -0.0008443 -0.00447077 
233 1 55.8395 17.1965 27.8992 -0.014737 0.017003 -0.000519937 
245 2 54.9061 17.1513 27.1598 0.0246472 -0.0135458 -0.0318189 
225 1 55.895 15.8795 28.5576 0.00958381 0.0308394 -0.0287205 
246 2 54.7831 14.4627 27.7888 0.0173184 0.0826817 -0.0327533 
237 1 55.8462 13.4346 29.5057 -0.0173218 -0.0263416 0.00178013 
219 1 56.914 15.8162 29.5692 -0.00659735 -0.017573 -0.0152296 
217 1 57.6421 17.1275 29.6969 -0.0233809 0.00814224 -0.0144517 
249 2 54.7768 12.9399 29.252 -0.014932 -0.0374769 -0.0110864 
242 2 56.1121 19.1451 27.5757 -0.0297397 -0.0615096 0.0331339 
230 1 56.4332 18.263 28.1129 0.00449594 0.0222249 0.0182805 
223 1 57.0276 18.4893 29.3078 -0.00950202 0.0172826 -0.00148977 
241 2 56.4559 20.6381 29.9073 0.0620226 0.039662 -0.083591 
238 1 58.2868 12.7208 30.3946 0.00752564 0.0440582 -0.0020068 
227 1 56.8823 13.5021 30.5257 0.019527 0.00456646 -0.0144301 
222 1 58.4405 15.087 31.4308 -0.0114363 0.0178292 0.00898234 
220 1 59.058 16.316 31.7077 0.0128483 -0.0233789 0.0187383 
218 1 58.4399 17.3987 30.8102 0.00763201 0.0268074 -0.00480534 
221 1 57.2473 14.9124 30.7366 0.010967 0.0289246 0.00425151 
248 2 58.605 12.8252 32.4547 -0.0125187 0.0316503 0.00298656 
228 1 58.7892 13.937 32.2966 -0.0144914 -0.00597603 0.0060551 
236 1 59.852 14.2022 32.9737 -0.00453542 -0.00200534 0.0146266 
224 1 58.8727 18.5997 31.4005 -0.00560656 0.00253662 -0.000979052 
243 2 57.669 20.8732 31.4302 0.0585455 -0.0147258 -0.0499005 
231 1 58.1194 19.8709 30.9717 -0.00345813 0.0391087 0.00663327 
232 1 59.4597 18.8337 32.7723 0.0147564 0.000820161 -0.0168815 
229 1 57.0053 19.6586 30.081 -0.0231344 0.0180367 -0.0169376 
244 2 59.4088 19.4439 33.6137 0.012531 0.00944198 -0.060899 
486 1 50.6056 26.7737 34.8966 -0.000143436 0.0087912 0.026831 
502 2 50.1321 27.6791 34.3658 0.0187457 0.0283326 -0.0247323 
355 2 64.2312 -7.32839 -6.46337 0.0989218 -0.0165938 -0.00227273 
75 1 61.71 -7.36256 -6.10341 -4.63664e-06 -0.0258399 -0.00312433 
73 1 62.5662 -8.35648 -6.84657 0.0145654 -0.00599064 -0.00124178 
97 2 63.5444 -8.05097 -8.98739 0.0211521 0.0386993 -0.00790631 
98 2 61.4551 -7.72493 -9.75713 0.0444658 -0.0114222 -0.066315 
79 1 62.7217 -8.21439 -8.19829 0.00568424 -0.00619662 0.0234045 
86 1 61.3926 -7.94048 -8.65515 -0.0101524 -0.0268514 0.0109865 
89 1 60.5707 -6.94256 -7.9783 0.00472752 -0.00619642 0.0005624 
81 1 60.7853 -6.36896 -6.77583 -0.020823 0.00241636 0.0143356 
101 2 60.2788 -5.88734 -8.5076 0.0759848 0.0157263 0.00799098 
14 1 63.7628 7.62284 -10.3289 -0.00344676 -0.0161229 -0.00669367 
29 2 61.7462 7.96476 -9.16476 -0.0143333 -0.0519799 -0.0923197 
17 1 62.5405 7.54051 -9.6133 0.00650197 -0.00221489 -0.0483199 
33 2 62.1988 6.80372 -10.5304 0.110696 -0.0350864 0.0188921 
74 1 63.7624 -8.06141 -5.8723 0.0208249 0.0164013 0.0134323 
76 1 63.7837 -8.63947 -4.45331 -0.0114144 -0.0155392 -0.0197218 
77 1 61.7329 -7.33174 -4.72257 -0.0274567 0.0170258 -0.00500619 
82 1 64.9001 -8.44291 -3.44344 -0.0189311 0.0201498 0.0130439 
78 1 62.4471 -8.24041 -3.781 0.00406514 -0.00265143 -0.00578512 
84 1 62.2061 -8.881 -2.50009 0.0236105 0.00719211 0.0162577 
92 1 64.6473 -9.16946 -1.93986 -0.0110048 -0.0190435 0.00920776 
95 1 63.2374 -9.463 -1.76775 0.00165244 0.0307417 -0.00870171 
104 2 65.4555 -9.13045 -1.26381 0.0295084 0.0456107 0.0375085 
107 2 62.7778 -9.17582 -0.713614 -0.0601728 0.16594 0.118762 
96 1 60.8955 -8.26809 -1.71096 0.00396792 -0.0135073 0.0265809 
83 1 60.5739 -6.93068 -3.9762 0.00401882 -0.00555011 -0.0114601 
94 1 60.1605 -7.41127 -2.42758 0.0227341 -0.00887168 0.0229106 
103 2 67.3216 -6.11149 -4.58713 -0.0512223 0.00948117 -0.0711509 
91 1 66.0106 -7.67812 -3.63918 -0.0193897 0.00557466 -0.0140925 
88 1 67.0487 -6.82741 -3.86481 -0.018612 -0.000948176 0.0326492 
574 2 83.8764 2.39386 3.19075 -0.0773227 0.019691 -0.00696002 
321 2 73.361 1.58138 23.9417 0.0479266 -0.064884 0.0442844 
389 2 82.7605 -10.011 29.1051 0.0987302 -0.0165358 0.0281734 
377 1 83.6693 -10.5993 29.2706 0.00528536 0.011835 0.000131446 
324 2 73.7874 -0.48875 24.1059 0.00402213 -0.0149169 0.0552244 
323 2 71.0948 0.963756 25.4534 0.0141285 -0.000924699 0.031518 
319 2 70.5005 0.326335 29.7567 0.0384134 -0.00336013 0.0186466 
320 2 70.262 0.190059 27.2539 0.00734748 -0.0508542 0.0427311 
307 1 71.4482 0.277643 29.6038 -0.00782849 -0.0256918 0.0141786 
298 1 71.9867 0.51821 28.268 0.00532437 -0.0042478 0.0107094 
308 1 71.3003 0.479157 27.2166 -0.0163391 0.00360699 -0.0377342 
311 1 71.9323 0.943569 26.0445 -0.00448746 -0.00319161 -0.0189636 
297 1 77.2969 2.79158 27.7916 0.0137839 -0.0218947 -0.0126961 
289 1 75.0713 2.45486 29.1353 0.00294202 0.0216588 -0.000576235 
290 1 73.5505 2.29033 29.2585 -0.0165381 -0.0091658 -0.00562525 
292 1 73.1342 1.36623 28.091 0.0152712 -0.00313715 0.00621125 
300 1 73.1988 1.10968 25.9723 -0.00715301 -0.023528 0.015748 
294 1 73.8755 1.30647 26.9962 -0.00769204 -0.000654341 0.0262934 
312 1 73.5761 0.625321 24.6153 -0.00765311 -0.00377235 -0.0204258 
293 1 75.1209 2.22449 26.7189 0.0169143 0.0233749 0.00182606 
322 2 76.279 1.28181 25.5803 -0.0331168 -0.0852291 0.00218242 
310 1 75.7544 2.06406 25.3806 -0.0179009 0.0280806 -0.00574777 
291 1 75.8234 2.29775 27.9434 0.000343963 -0.000704708 0.00981676 
306 1 77.5878 3.67644 26.6117 -0.0238088 0.00926182 -0.0234422 
299 1 76.2472 3.31675 24.7696 -0.0182857 -0.0165997 -0.00552629 
309 1 77.4144 4.1899 25.3054 -0.00405928 -0.00917539 0.0182761 
318 2 75.6005 4.02787 24.5161 0.0651536 -0.0169293 0.0559597 
305 1 78.1058 2.68786 29.0716 -0.00286132 -0.0201075 0.00380299 
317 2 79.1578 2.66052 29.4438 -0.0889097 -0.0444118 -0.0413048 
381 1 83.6097 -10.9897 33.2631 0.0111349 0.00273153 -0.0233683 
393 2 83.8646 -10.9176 34.1852 -0.0306527 0.0179726 0.111326 
304 1 71.823 1.15016 30.7537 0.00113468 0.0374888 -0.0151471 
316 2 71.4944 0.974423 31.7139 0.0479124 -0.0020645 0.0481176 
313 2 75.9115 2.51404 32.6985 0.0297777 -0.064787 0.00965116 
303 1 73.9878 2.31292 31.6113 0.0164561 0.00854434 0.00947371 
301 1 75.2977 2.70588 31.5497 0.013336 0.00787982 0.00497775 
295 1 75.8487 3.0265 30.1933 0.0272437 0.0155644 -0.0384113 
314 2 77.5653 2.90986 31.3233 0.0295391 0.0429575 -0.0206871 
302 1 77.2518 2.79514 30.1752 0.0103367 -0.0117665 0.00699707 
296 1 72.915 1.89812 30.5801 0.00905447 -0.00857412 0.0171801 
315 2 73.0786 2.29929 32.4697 -0.0417546 0.049218 -0.0846908 
207 2 72.2579 11.7148 33.5064 -0.0465631 0.0415403 0.0114342 
211 2 75.8604 12.4991 -11.3992 -0.0405549 0.0017299 -0.026684 
215 2 78.4205 15.13 -11.9614 0.138423 0.0313876 -0.0249766 
144 2 71.1289 22.4815 -8.81182 -0.100578 -0.123767 -0.0269429 
394 2 71.4307 22.739 -9.15309 0.0832091 0.0598555 -0.0609989 
417 1 65.7271 27.358 -11.618 -0.00940388 0.0178251 0.0150412 
414 1 64.2825 29.4087 -9.83578 -0.0210492 -0.00936484 -0.000159678 
426 2 63.8723 28.5474 -10.3151 -0.0667869 -0.0837133 -0.134488 
407 1 66.3581 28.6407 -11.7992 -0.0175865 0.00276096 -0.0210274 
401 1 66.6914 29.8201 -11.8966 0.0116456 -0.00203717 -0.0213976 
425 2 62.7963 30.7484 -10.3895 -0.0145893 -0.0506986 0.0337057 
405 1 64.6613 30.2143 -11.0794 -0.0221544 -0.00477259 -0.0176944 
413 1 63.2552 30.6512 -11.3107 -0.00286215 0.0119545 0.00908122 
399 1 65.6524 30.8792 -11.5168 -0.00944583 0.00383138 -0.0277303 
431 2 71.1491 31.8066 -11.8855 0.0453413 0.0154968 0.0374793 
539 2 69.7993 22.5035 -2.40396 0.081655 0.0368694 0.0480265 
179 2 69.982 21.8292 -2.85102 0.00494799 0.0739204 0.0218296 