ITEM: TIMESTEP
330000
ITEM: NUMBER OF ATOMS
576
ITEM: BOX BOUNDS pp pp pp
-1.2000000000000000e+01 8.4000000000000000e+01
-1.2000000000000000e+01 3.6000000000000000e+01
-1.2000000000000000e+01 3.6000000000000000e+01
ITEM: ATOMS id type x y z vx vy vz 
403 1 11.6408 -2.59288 7.66062 -0.01605 -0.00403683 -0.0204411 
429 2 10.7485 3.38326 6.3783 -0.0179667 0.00957777 -0.0354049 
209 2 -2.75073 10.1062 -8.18437 -0.0319521 -0.0401774 -0.0604713 
206 2 -1.75549 8.5853 -6.60094 -0.0409178 0.0421143 -0.0458405 
461 2 -5.35865 9.55261 -6.06347 -0.0731634 0.00231479 -0.117864 
197 1 -3.07026 10.3689 -7.14951 -0.000207067 0.00186957 0.0457945 
458 2 -6.05262 11.6537 -5.01784 -0.0130529 0.0221927 -0.0369022 
407 1 10.7414 2.21991 6.74406 0.0122456 -0.0107737 -0.00803838 
388 2 11.2897 -7.83704 -7.10089 0.0413008 -0.0275738 0.0896898 
466 2 -9.54323 4.40344 -3.79371 0.0493822 0.0630433 -0.0336246 
465 2 -8.35979 5.24762 -5.9321 -0.0394361 0.0283034 0.0509427 
436 1 -10.775 9.63723 -3.27616 -0.000558651 -0.0169235 0.0186326 
433 1 -8.74898 10.3801 -4.10598 -0.0140096 -0.0217074 -0.0207952 
441 1 -7.3519 8.59215 -5.27687 0.0071021 0.0229178 -0.0103251 
438 1 -10.4464 8.12846 -3.35787 -0.00218709 0.0221835 0.00669317 
439 1 -7.69305 11.1601 -4.35289 -0.0300527 -0.00864806 -0.00984169 
446 1 -6.52167 10.7601 -4.93313 0.0144186 -0.00716979 0.00623993 
449 1 -6.26824 9.53831 -5.45193 0.0187579 0.025414 -0.0046171 
450 1 -7.24001 7.24689 -6.14005 0.00978276 0.0170408 -0.00294125 
434 1 -9.84762 10.6446 -3.20795 0.00492315 -0.00384307 -0.0087919 
435 1 -8.551 8.99699 -4.7008 0.00267347 -0.0127321 -0.0178496 
453 1 -8.17971 6.3047 -5.56194 0.00273218 -0.00697689 -0.0183878 
437 1 -9.20004 7.80495 -3.94324 -0.0282307 -0.0362599 0.0189581 
443 1 -8.97535 6.47519 -4.44793 0.00753613 -0.00216495 -0.0165561 
454 1 -9.88194 5.61086 -3.93701 -0.0014912 0.0453648 -0.0106104 
456 1 -11.174 5.8275 -3.63442 0.00782962 -0.0142768 0.00162784 
207 2 -2.25148 6.93115 -2.22854 0.022009 0.0582865 0.0291979 
462 2 -6.39843 6.98353 -6.61882 -0.00943489 -0.0210837 0.0257918 
196 1 -3.01588 9.02611 -0.786117 0.0219759 0.0149175 0.00123074 
205 2 -4.5861 7.54643 -3.26318 0.0740668 -0.00908413 -0.0520793 
195 1 -2.9667 7.67723 -2.75665 0.0353472 0.0125951 -0.0233468 
188 1 -3.59916 8.89192 -2.17299 0.0122297 0.0195932 -0.0119785 
193 1 -3.69005 7.587 -4.0031 -0.00575439 -0.0139146 -0.00409975 
184 1 -4.42974 10.9532 -1.89519 0.00113675 0.0118852 -0.0224002 
194 1 -2.83332 9.21894 -6.2115 0.0164181 0.00981082 -0.0188624 
187 1 -3.43687 8.77475 -4.82641 0.0101899 0.024316 0.028975 
181 1 -4.01407 9.91676 -4.28939 0.00414186 0.0182148 -0.0288866 
182 1 -4.53214 9.85413 -2.83348 -0.015841 -0.0055363 -0.0226452 
189 1 -3.22001 11.4156 -6.13527 0.0263029 -0.00754201 0.00213844 
183 1 -3.42686 11.1846 -4.75971 0.0155221 0.0153109 0.0113939 
190 1 -3.91222 11.0089 -0.486144 0.003811 0.00794228 -0.00649409 
444 1 -11.5408 7.16413 -3.39643 0.00421929 0.00199777 0.0185632 
399 1 11.4617 -0.0890453 6.85709 0.0115867 -0.0149323 0.00368226 
216 2 10.4629 4.36672 -0.211161 0.0154889 0.0430173 -0.0183596 
417 1 9.77058 1.47511 7.01641 0.0185978 0.00172535 0.0140203 
200 1 -4.88424 11.8692 0.035594 0.0118195 -0.000499021 0.0110449 
208 2 -2.36564 8.17413 -0.628513 0.0960597 0.105185 -0.115779 
199 1 -3.33195 9.88569 0.312214 0.0110961 0.000300931 0.0048997 
211 2 -3.52706 9.94977 1.43508 -0.037071 -0.0804536 0.00619701 
414 1 8.96738 0.550475 6.99944 0.00783083 -0.00698853 0.00317346 
422 2 9.77717 -3.77444 7.45298 -0.0397755 -0.0194702 -0.00758583 
410 1 10.3805 -2.99655 6.98188 0.00441671 0.00614439 -0.00369238 
413 1 9.53867 -1.94093 6.50142 -0.022477 0.000377436 -0.00496404 
426 2 7.7792 0.506772 6.89943 0.0108726 -0.0362241 -0.0197826 
425 2 8.56135 -2.20975 6.33069 -0.0343946 0.0608823 -0.0597747 
405 1 10.0426 -0.716245 6.80467 0.00270612 -0.0171995 -0.00799946 
212 2 -4.6258 11.8239 1.08127 -0.0253328 0.00382737 -0.0192411 
430 2 11.9907 4.23935 7.61916 0.0550797 0.00690071 -0.0628967 
391 2 12.2184 -10.7016 -7.75691 0.0837342 -0.0185311 -0.069871 
376 1 12.1355 -8.17566 -7.38443 0.024866 0.0151535 -0.00381729 
401 1 11.8729 1.14683 6.5468 -0.00907851 0.0174662 -0.0165488 
440 1 -10.399 11.8686 -3.73531 -0.00171011 -0.00551902 -0.0179059 
108 2 2.22622 5.62608 28.7399 0.0467864 0.062315 0.0829102 
71 2 -1.20581 3.32013 33.8551 -0.026227 -0.0410447 -0.0346449 
215 2 -5.6678 13.9973 0.0857489 0.0771094 -0.0871127 -0.0784942 
198 1 -2.60535 12.7925 -6.10749 0.0116051 -0.0200937 -0.00465158 
213 2 -2.84444 14.8584 -5.90846 0.0254055 -0.031429 0.0737151 
210 2 -1.96372 12.9096 -7.01897 0.0765428 0.0369785 -0.0299661 
447 1 -9.5434 12.7677 -4.56697 0.00546107 -0.0354871 -0.0039947 
459 2 -10.2012 13.465 -5.41884 -0.0533575 0.0469794 -0.0522215 
448 1 -11.644 12.3064 -3.90225 -0.0088712 -0.0137314 -0.0196106 
445 1 -8.23306 12.3679 -4.93537 -0.0136551 -0.00410243 -0.00691649 
186 1 -4.84015 12.0451 -2.68858 -0.0101505 0.0192041 0.0112575 
457 2 -7.4534 13.2069 -5.15223 -0.0381857 -0.0746942 -0.0216695 
135 2 5.06888 19.2545 -7.09718 0.0318686 0.149091 0.097284 
201 1 -3.19359 13.9485 -5.50248 -0.00137603 -0.00484139 0.00219585 
191 1 -3.47965 13.6293 -4.1132 -0.00290062 -0.00667202 0.0100391 
192 1 -5.4756 13.1868 -1.78877 -0.00331292 -0.00962256 -0.00712076 
204 1 -5.56719 14.5513 -2.73184 -0.00535403 -0.00371801 -2.21846e-05 
202 1 -4.18234 14.381 -2.932 0.018167 -0.00559956 0.0115827 
214 2 -3.72488 13.5608 -2.17818 -0.0145886 0.0175516 0.00477842 
185 1 -4.02183 12.2808 -3.95617 0.00769506 -0.00518988 -0.00615885 
282 2 5.01378 19.8299 -7.52782 -0.0073204 0.0673385 -0.155181 
203 1 -5.50694 13.0442 -0.458418 0.0103236 0.0277055 -0.0302691 
537 2 -1.20378 18.1525 22.22 -0.0928974 0.0366722 -0.0702929 
540 2 -0.560291 18.1904 22.2046 0.0662796 -0.0554634 0.103233 
179 2 5.11491 12.3719 19.973 -0.0191987 0.0408363 -0.0609211 
382 1 18.5349 -8.54288 -11.9788 0.0050931 -0.0162363 0.000704237 
400 1 14.0452 -0.0610854 6.43431 -0.0264966 0.0143834 0.00296505 
372 1 16.1127 -9.19257 -11.2314 0.00472392 -0.00918413 0.0026003 
383 1 14.8026 -9.88088 -11.4494 0.0178538 -0.0142741 -0.00136086 
364 1 14.4346 -8.29851 -9.44301 0.00175175 0.00423536 -0.0117881 
406 1 15.4645 0.062868 6.31417 0.00990683 -0.0246144 -0.0115276 
371 1 18.3738 -8.03681 -10.746 -0.0103745 0.00506867 -0.0230576 
366 1 15.8171 -8.19113 -10.4196 0.0119891 -0.00258179 -0.0148765 
365 1 17.1681 -7.60372 -9.90477 -0.000287742 -0.00332349 -0.00617284 
362 1 14.5239 -7.41914 -8.26476 -0.0128947 0.0147489 -0.0285276 
363 1 17.2223 -7.36822 -8.51133 0.0294931 -0.00514313 -0.0160348 
370 1 13.7157 -9.34139 -9.3272 -0.00603131 0.0137282 -0.034044 
408 1 14.4065 2.17631 7.18256 -0.00933986 -0.0107572 0.0359696 
392 2 13.8291 -11.3364 -10.3002 -0.00516654 -0.0602668 -0.0340824 
361 1 15.9031 -6.90726 -7.8587 0.0161733 -0.00146793 0.00526009 
380 1 14.2461 -10.3604 -10.2377 0.0152502 -0.023413 -0.00321276 
368 1 13.5408 -7.79932 -7.28303 0.0127452 -0.0355447 -0.0124788 
369 1 18.396 -6.77963 -8.01288 -0.00489473 0.00329132 -0.00762647 
390 2 19.7104 -8.8133 -12.4093 0.00804982 -0.0824483 -0.098154 
387 2 12.56 -7.22653 -5.30642 0.102467 0.00281279 -0.0101549 
381 1 19.6454 -7.75819 -9.93754 -0.00335239 -0.00740423 -0.0210915 
393 2 20.4183 -7.28556 -10.6453 -0.055015 0.0398418 0.0653908 
378 1 19.5438 -7.31172 -8.52099 -0.00761482 -1.61503e-05 -0.003039 
495 2 20.606 -7.4184 -8.08513 -0.0180556 -0.000184244 0.00628653 
375 1 13.6908 -7.14694 -6.04767 -0.0117902 0.0233887 -0.0221854 
367 1 15.7088 -6.42232 -6.56777 0.0296235 0.015155 0.0057175 
373 1 14.7239 -6.25467 -5.50112 0.00718745 -0.00286916 -0.0188977 
385 2 15.3953 -6.5243 -4.63927 -0.00746212 0.0775919 0.0400711 
374 1 17.1053 -6.43493 -5.70071 0.00643267 -0.0241198 -0.010838 
386 2 17.2028 -6.56937 -4.66708 -0.0983264 -0.0495722 0.15113 
377 1 18.1762 -6.58115 -6.41221 0.0106338 -0.00489727 -0.0125412 
389 2 19.1824 -6.61847 -6.25486 -0.0428911 0.0444433 -0.080841 
418 1 12.9197 4.4526 7.10572 -0.000648913 0.0213716 -0.0162469 
557 1 23.5034 11.8416 -5.2679 -0.00454134 -0.0205197 -0.0151208 
569 2 23.6077 10.7141 -5.48138 0.0379766 -0.0348558 -0.102455 
570 2 21.5476 11.0475 -6.05539 0.082039 -0.03557 0.00307914 
379 1 12.4175 -9.47205 -8.21418 -0.0026866 -0.0257238 -0.0437968 
424 2 16.3457 -2.78976 7.66101 0.0229571 -0.077576 0.0259315 
412 1 15.9773 -2.11012 7.03769 -0.01346 -0.00350783 -0.00150467 
427 2 17.4137 -0.636438 6.87903 -0.0734247 -0.119229 0.0765702 
428 2 17.1546 1.81498 5.40147 0.0494661 0.0300373 0.0423554 
415 1 16.5668 -0.924774 6.52669 0.00317103 -0.0288965 0.030451 
420 1 13.7026 3.46962 7.20364 0.00843229 -0.0333925 -0.038648 
398 1 13.4869 -1.40853 7.05067 -0.00747484 -0.0216862 -0.0180709 
402 1 13.3457 1.04419 7.01425 -0.0332865 0.00391638 0.00528891 
409 1 12.7353 -3.65808 7.80799 -0.0158655 -0.0216793 -0.00951057 
411 1 14.0799 -3.79951 7.22212 -0.013001 -0.0208623 0.00876635 
397 1 12.2794 -1.2744 7.25757 0.00576742 0.0217721 0.00607222 
423 2 14.2643 -4.97109 6.99391 0.0538818 0.0139872 0.0224775 
404 1 14.4471 -2.46498 6.95821 -0.0130382 0.0163073 0.0232054 
419 1 15.694 2.39091 6.45874 -0.0227652 0.0195962 -0.012076 
416 1 16.3017 1.32525 5.99137 -0.023043 -0.0167669 -0.0247328 
431 2 16.3029 3.3328 6.45445 0.0633757 -0.0294371 0.103161 
432 2 13.4111 5.28933 7.68027 0.0468236 -0.00567158 0.00937589 
237 1 35.1245 1.38797 28.1366 0.00992029 0.0225507 0.00996767 
250 2 33.8649 1.44863 25.9876 -0.0336294 0.0165065 -0.0543435 
227 1 34.9189 2.55174 27.1731 -0.00647733 -0.0133841 -0.00272369 
238 1 33.8048 2.75932 26.1086 -0.00968321 0.0197969 0.0134138 
228 1 33.3545 5.0679 26.2248 -0.00934825 -0.00612975 -0.0230262 
222 1 34.5892 4.99104 26.9158 0.00642231 -0.00112357 0.00637517 
252 2 33.2244 3.69431 24.2389 -0.0552283 0.0514714 0.0288958 
240 1 33.5342 3.88957 25.2571 -0.000623792 0.00707091 -0.0118811 
221 1 35.0637 3.92624 27.6015 0.0143168 -0.0260173 -0.0208248 
251 2 32.3728 6.44564 24.3315 -0.0702338 -0.0604081 0.0208333 
249 2 35.1524 0.321259 28.0657 -0.00724906 0.0369577 -0.0178451 
220 1 35.015 6.5009 27.2816 0.00169312 0.00951947 0.0270292 
239 1 32.853 6.30212 25.387 -0.00816764 -0.0150266 0.00883364 
226 1 34.7583 7.50483 26.3986 0.00656272 -0.018229 -0.0217008 
236 1 33.7531 7.278 25.4517 0.0100833 0.02244 -0.000936954 
248 2 33.5864 8.52504 24.7707 -0.043758 -0.0770896 0.0698553 
247 2 35.1663 10.068 26.1279 0.0406436 0.00791516 -0.00852791 
235 1 35.4022 9.02518 26.5185 -0.00985268 0.00860507 -0.0272634 
396 2 17.4708 -10.0696 35.1225 -0.0175321 -0.0797371 0.19356 
234 1 35.7785 1.80095 29.2854 0.0187353 0.00042092 -0.0596492 
384 1 17.1991 -9.0928 35.5034 0.00284406 -0.0249958 -0.00140465 
395 2 14.6714 -10.5283 35.6976 0.0407094 -0.0544705 -0.00998812 
219 1 35.521 4.11326 28.8713 0.000730888 -0.00988781 0.00928777 
394 2 16.9056 -8.4726 34.6377 0.00668851 -0.0271843 0.00178556 
485 1 13.6408 21.3807 -10.3211 0.0128796 -0.00372178 -0.0280833 
482 1 13.7313 21.2093 -9.00321 0.00246464 0.00231335 0.00171181 
477 1 14.7762 21.8617 -11.1366 -0.00543141 0.00199835 -0.00168272 
571 2 24.2297 18.8858 -1.75276 -0.0243727 -0.0234911 -0.0128372 
471 1 16.1771 21.8558 -10.6048 -0.0171013 0.0323309 -0.0118138 
474 1 18.2579 23.5182 -11.0227 0.0391721 0.00285446 0.00202171 
473 1 17.548 22.356 -11.2384 0.0125694 -0.000748226 -0.0141181 
497 2 12.8023 21.2199 -10.9411 0.0319369 0.0373859 -0.028624 
469 1 16.0756 22.5275 -9.35768 0.00441147 0.0192631 -0.0285337 
476 1 17.3188 23.1306 -7.57425 -0.0385568 0.0053022 -0.00956003 
470 1 17.0642 23.355 -8.93868 0.00152528 0.0197056 -0.00692574 
494 2 12.8011 21.2524 -8.25949 0.0213764 -0.0847476 -0.0729149 
475 1 15.0582 21.7828 -8.62518 -0.0115312 0.0148041 -0.000991882 
481 1 14.9788 21.6929 -7.14242 0.00376254 0.0122976 0.00369981 
472 1 17.8982 24.2699 -9.74931 0.0115899 0.00177378 -0.00309923 
566 2 24.0585 12.8614 -3.64113 -0.0201977 -0.0398092 -0.00498077 
503 2 17.9681 26.6629 -9.55824 0.0367855 0.0389358 -0.0150933 
478 1 18.3591 25.6155 -9.14647 -0.0110806 0.0300883 -0.0155693 
484 1 18.1066 24.2324 -7.03426 0.0256007 0.0257407 -0.0120584 
496 2 18.2218 24.3116 -5.91327 -0.0169104 -0.0125762 -0.0291646 
487 1 18.3977 25.3964 -7.80152 -0.0215195 -0.0119243 0.0225679 
499 2 18.8063 26.2992 -7.29977 0.0566115 0.0552799 0.089637 
554 1 24.5499 12.5975 -4.62272 0.00184001 0.0083207 -0.00609494 
559 1 24.1373 18.2604 -2.58784 -0.00658893 -0.0145918 0.022455 
574 2 18.2102 13.7737 -3.43444 -0.0173544 -0.0163143 -0.0510792 
576 2 18.4259 15.9323 -1.80904 -0.0140171 -0.0382176 0.0548857 
549 1 22.3179 12.9534 -5.46517 0.001834 0.0035879 0.0213504 
544 1 22.8021 16.9642 -3.9534 0.011783 0.0371324 -0.007394 
546 1 21.4913 16.3335 -4.21979 0.000749437 -0.00294272 0.0225429 
564 1 19.2806 15.6822 -2.79862 0.00339716 -0.00369802 -0.00787687 
552 1 20.4732 16.6106 -3.05385 0.0181641 -0.016601 0.011917 
542 1 23.991 16.0309 -4.57813 -0.00100137 0.0122409 0.00826558 
562 1 19.092 14.5034 -3.6148 -0.0110133 -0.000612099 -0.00852383 
551 1 20.1471 14.0803 -4.83342 -0.00806704 -0.0266181 0.00184709 
545 1 21.2097 14.9195 -4.70851 -0.00396262 0.0131604 0.0296637 
573 2 19.3121 12.9132 -6.57001 0.000262667 0.025032 0.0518268 
541 1 23.9339 14.8607 -5.1197 -0.0162907 0.0276569 -0.00958195 
543 1 22.6274 14.2528 -5.05663 0.011323 0.0425993 -0.0153192 
561 1 20.1934 12.963 -5.77853 -0.0214398 -0.0120898 -0.0156234 
550 1 22.8268 17.8322 -2.86525 0.015999 0.0082638 0.0128017 
567 2 27.3464 16.347 -4.12642 0.0397172 0.0196514 0.0344598 
565 2 27.0958 13.4352 -4.11671 -0.00279426 -0.0413975 0.0610157 
556 1 24.9871 17.0928 -2.38583 -0.011674 0.00681324 0.0216924 
548 1 25.1843 16.515 -3.84666 0.00711041 -0.00606871 -0.00173548 
547 1 25.1549 13.8478 -4.91506 0.000164559 0.0338528 0.00813367 
555 1 26.5088 15.6978 -4.07146 -0.0177794 -0.00710464 0.0046577 
553 1 26.2833 14.2333 -4.28786 0.0111161 0.0148513 0.00574263 
568 2 25.2792 16.5019 -1.40442 0.0362076 -0.151564 -0.0292578 
493 2 16.5924 22.1994 -5.60509 -0.0243029 0.0443837 0.0526631 
483 1 16.1887 22.3174 -6.59291 0.0113692 0.0178483 -0.0390401 
575 2 19.5514 18.3468 -2.16097 0.0317372 0.0428953 0.0902975 
563 1 20.5833 17.9305 -2.44158 0.0185769 -0.00454561 0.0158246 
572 2 21.4925 19.5348 -3.38755 -0.0212961 -0.0394171 -0.0200207 
560 1 21.5992 18.6246 -3.08851 0.0013482 -0.0179154 -0.00925859 
558 1 21.2522 12.0312 -5.7539 0.0134972 -0.0145284 -0.00342427 
421 2 31.0075 13.8952 7.4442 0.167891 0.0673889 0.0523198 
502 2 22.0115 22.0106 -11.8813 -0.0827631 0.0567299 -0.0573632 
360 2 29.3174 28.0513 13.4947 -0.0260181 -0.0444108 -0.0301095 
358 2 31.5305 28.0213 13.9343 0.12236 0.0270879 0.0034668 
348 1 29.9577 28.9911 13.6932 0.00262812 -0.0125002 0.0139044 
359 2 27.5399 28.149 13.2728 -0.0426501 -0.0487868 -0.00245824 
356 2 25.5155 28.8257 15.5932 0.0260974 0.0623387 -0.0290643 
344 1 26.3493 29.2632 15.2553 -0.0177874 -0.0101599 0.0388278 
343 1 26.076 31.2981 17.1404 -2.59517e-05 -0.00162497 0.0035703 
347 1 27.2694 29.1102 14.2291 -0.00397257 -0.0193502 -0.00743368 
334 1 26.8519 30.5451 16.2554 -0.0366277 0.0142673 -0.0102987 
328 1 28.13 31.2568 16.0574 0.0161385 -0.00213882 -0.00537687 
336 1 28.6155 29.6602 14.1635 0.00971607 -0.00433217 0.00110616 
326 1 28.8403 31.8126 17.0687 0.0121138 -0.0410549 -0.0285637 
330 1 29.157 30.7208 15.1943 -0.0268211 -0.0211587 0.0095931 
355 2 25.0104 31.3617 16.8744 0.0608314 -0.0457918 0.0136362 
357 2 33.7093 30.3032 13.5497 0.0168162 -0.0507672 -0.0930108 
345 1 33.0235 30.779 14.4135 -0.0159338 0.032625 -0.0199019 
346 1 31.2347 28.9484 14.283 0.00936034 0.0118277 -0.00497834 
329 1 30.5478 30.8959 15.464 -0.00674305 -0.0242567 -0.00450439 
335 1 31.653 30.3824 14.5512 -0.0258583 0.0129436 -0.00494677 
327 1 31.1651 32.1515 16.0861 -0.000798277 -0.0173449 -0.0328396 
342 1 33.041 32.1915 14.8455 -0.0244916 0.0119454 0.000240098 
333 1 32.1925 32.9585 15.7553 -0.0165762 -0.00285471 0.024964 
354 2 33.8372 32.8237 14.7308 0.030267 0.0140016 0.0745032 
325 1 30.2623 32.1175 17.2422 0.0180981 0.00534699 -0.00115247 
350 2 31.4015 35.1199 18.1836 0.0993548 -0.0508736 -0.00521196 
338 1 31.7803 34.02 18.0766 0.0286679 -0.0258003 -0.0208975 
341 1 32.4608 34.0172 16.7391 0.000620218 -0.0147952 0.0149811 
331 1 30.6212 33.0647 18.1994 -0.00141186 -0.00801347 -0.0117271 
353 2 33.3311 34.6558 16.5862 -0.0648134 0.0626314 0.0577113 
159 1 21.7855 16.953 20.6819 0.000191119 -0.0129694 0.0118113 
169 2 21.4844 16.2955 19.6678 0.0883148 0.0251786 0.0275856 
172 2 19.2051 18.4992 20.3798 -0.0977625 0.0148576 0.051684 
152 1 21.4108 18.1939 21.2388 -4.22425e-05 0.0190628 -0.00902432 
171 2 22.5735 15.1308 21.8593 0.0486688 -0.028481 0.000878208 
157 1 22.5433 16.242 21.7501 -0.0113637 0.0172576 -0.0121096 
151 1 23.2178 16.8553 22.9277 0.00192962 -0.00648796 0.00957654 
161 1 25.7059 16.7029 24.2283 -0.0182863 -0.00909859 0.0177365 
158 1 24.6293 16.4788 23.1849 0.0115281 -0.0115124 0.0254415 
170 2 24.9292 16.1037 22.2225 -0.0467888 0.00944832 -0.041937 
145 1 23.4425 18.2374 22.6088 0.0132047 0.00621429 0.0257776 
160 1 20.2041 19.0585 20.4697 0.0110064 0.0223275 0.000721486 
146 1 22.2378 18.9359 22.2486 -0.00539827 -0.0275896 -0.0260836 
175 2 19.1091 21.2358 20.5054 0.034384 -0.0857494 -0.0760634 
163 1 19.9712 20.3281 20.5815 -0.0245074 0.0350737 0.0133948 
176 2 23.1282 24.1023 20.8549 -0.0623159 0.01475 0.179275 
164 1 21.4403 22.4342 21.2928 0.00747166 0.0120983 0.00651034 
167 1 22.6176 23.1535 21.4038 -0.0154557 0.0300276 -0.00227471 
154 1 21.0826 21.023 21.5647 -0.00557902 -0.00908586 0.0206778 
148 1 22.1901 20.3644 22.2737 0.0022112 0.0158663 -0.0296531 
156 1 23.6094 22.0589 21.4872 0.00891589 -0.00165442 0.0250665 
150 1 23.6551 20.8758 22.1422 0.00758924 -0.00605469 -0.0106321 
168 1 24.8581 22.8164 21.6432 0.00144773 -0.0063996 0.00341908 
166 1 25.7339 22.2136 22.4161 -0.00316071 -1.94842e-05 0.00432589 
178 2 26.6422 22.8331 22.2022 -0.14141 0.0490562 -0.0586972 
155 1 25.7608 21.1563 23.38 -0.0108676 0.0072801 -0.000983413 
149 1 24.5646 20.2356 22.9878 -0.00965642 -0.00436697 0.0025486 
147 1 24.656 18.8627 23.3803 0.00881212 -0.02011 0.00887277 
153 1 25.8274 18.1135 23.9609 0.0128522 -0.00825198 -0.00569602 
180 2 24.7735 23.7443 21.2055 -0.0397238 0.060113 -0.0142305 
340 1 26.7688 31.1676 18.5899 -0.0281269 -0.010549 -0.000550093 
332 1 28.0578 31.8173 18.224 -0.00951791 -0.0285464 -0.0133852 
339 1 28.4206 32.74 19.4212 -0.0176367 -0.00775911 -0.0210437 
352 2 26.3603 31.4845 19.4772 -0.0815847 0.0562013 0.010052 
351 2 27.5901 33.3432 20.0506 -0.0357034 0.0416011 -0.0350345 
337 1 29.752 33.0588 19.4868 -0.00544768 0.0405676 0.021466 
349 2 30.4976 33.5407 20.0766 0.0265876 -0.0527544 0.0335871 
173 2 26.3558 16.3339 24.932 0.0154996 -0.0273833 -0.0329281 
165 1 27.1176 20.51 23.9481 -0.00520456 0.0138301 0.00848605 
162 1 26.9257 19.1297 24.35 -0.0020262 -0.00826053 -0.0197548 
174 2 27.555 19.0456 25.1681 -0.112728 -0.0555689 0.00460693 
498 2 13.7416 22.1996 33.7282 -0.016071 0.0111308 0.0653675 
489 1 14.1214 21.3169 34.2904 0.00250373 0.0135617 0.00608802 
501 2 18.533 22.4459 34.6945 0.0207927 -0.0411544 -0.0504513 
479 1 17.736 21.9195 35.4342 0.0113453 -0.0267623 -0.00636287 
492 1 20.1013 23.4673 35.602 0.018582 -0.0106581 -0.017995 
504 2 22.0644 23.8672 35.3372 0.101881 -0.0892051 0.104306 
490 1 21.3922 22.9346 35.5267 -0.0102673 0.00329421 0.0245599 
480 1 18.9651 24.2487 35.9025 0.0115031 0.0203987 0.000320312 
500 2 18.7474 26.3404 33.3803 0.0239555 -0.0242896 0.106927 
486 1 14.5278 21.5836 35.605 0.0247761 0.0235572 -0.00464013 
488 1 18.9753 26.525 34.3943 0.00609733 -0.0313456 -0.00635989 
491 1 18.9078 25.5839 35.407 -0.0141808 0.00608388 -0.0232195 
534 2 59.6846 -7.70534 -4.38006 0.0276081 -0.0489582 0.0275865 
515 1 59.7683 -9.00636 -6.55657 0.0289698 -0.0128236 0.034095 
538 2 57.394 -10.1878 -6.48283 0.00282557 -0.0249646 0.02629 
301 1 56.9354 -5.68492 0.217272 -0.00868274 -0.0198154 -0.0192813 
296 1 56.7128 -3.39782 1.53322 -0.0156542 -0.0127119 0.00278508 
526 1 58.4992 -9.86444 -6.9044 0.0185184 0.044305 0.00565067 
528 1 58.6617 -10.4998 -8.06642 0.0286381 0.0151461 -0.000449372 
516 1 59.5116 -10.83 -9.16628 0.0295463 0.00267027 0.017018 
314 2 57.3112 -5.55982 -2.74695 0.0674757 -0.0190889 -0.0159083 
300 1 52.2732 -2.31411 0.695735 0.0104029 -0.00331675 -0.00200316 
312 1 51.4874 -1.428 -0.0433625 0.00356302 -0.0222095 0.0079761 
310 1 51.6022 -1.10572 -1.32809 0.0150973 -0.0226723 0.0153979 
294 1 53.7443 -2.13838 0.0543397 0.00769214 -0.000668446 0.0260658 
321 2 51.9695 -2.12802 -3.98415 -0.0428073 0.0223885 0.140481 
309 1 52.9501 -2.29624 -3.65791 -0.0146154 -0.0116708 0.0165295 
293 1 53.8409 -2.38559 -1.30724 0.028317 -0.0135513 0.0052532 
299 1 52.7087 -1.86412 -2.27012 0.00474278 -0.0112999 0.00210853 
324 2 50.3415 -1.28309 0.0308296 0.0368095 -0.0415552 -0.0856187 
317 2 55.8482 -4.51387 -4.20758 0.021805 -0.0282095 -0.0546521 
318 2 53.8064 -3.47446 -4.68508 -0.0981981 0.0331589 -0.00332253 
305 1 56.062 -4.38855 -3.20865 -0.0260109 -0.00288782 -0.0273147 
302 1 56.3724 -5.51496 -2.35261 -5.92869e-05 0.0388309 -0.0250224 
289 1 55.7997 -3.64052 -0.709487 -0.0107735 0.0103319 0.0152324 
291 1 54.9798 -3.30582 -1.68181 -0.0132023 -0.000736723 -0.00992232 
297 1 55.019 -3.50886 -2.8247 -0.0145211 0.0107935 -0.00143428 
306 1 54.1111 -2.9664 -3.71164 -0.00389894 0.019383 0.0380322 
295 1 56.2928 -4.97079 -0.924555 0.00117049 -0.00824698 0.00599416 
313 2 56.9114 -6.85949 0.615942 0.048632 -0.0375304 -0.00881309 
322 2 50.8214 -0.677928 -2.06237 0.0541166 0.0303709 -0.0250698 
311 1 52.0637 -2.07188 2.06183 0.00696221 -0.0128853 0.00261101 
323 2 51.4229 -1.49085 2.70985 0.0379422 -0.117215 0.0164089 
308 1 53.2275 -2.43953 2.81167 -0.000520151 0.0208587 -0.00303626 
298 1 54.4933 -2.49356 2.03419 0.00186034 0.0060951 0.0047005 
320 2 53.2973 -2.46897 4.02104 0.0298622 -0.0438699 0.0197344 
319 2 55.5832 -1.09521 3.74536 0.00310381 -0.0257199 -0.0279898 
290 1 55.7945 -2.96522 0.516811 0.0147197 0.0388846 -0.00331769 
303 1 56.6892 -4.99188 1.32608 0.0145731 0.0221259 -0.000520618 
292 1 54.7632 -2.0763 0.792308 0.00696069 0.002477 0.0183637 
307 1 55.5981 -2.0697 2.93061 -0.0056932 0.00317516 -0.00464937 
316 2 57.9127 -2.14853 3.00226 -0.125328 -0.00860532 0.0243212 
304 1 56.8689 -2.29587 2.49506 0.0180795 -0.00497564 0.00441394 
315 2 57.1703 -5.46575 2.30282 -0.104795 -0.024258 -0.0285697 
9 1 56.0498 10.4229 17.0999 0.00654811 -0.0173838 0.000333517 
18 1 56.5773 9.14107 16.635 -0.0163863 0.0238833 0.00942878 
21 1 57.6881 9.3099 15.7955 -0.0227513 -0.0105189 -0.0122928 
11 1 57.7642 10.4946 14.9612 -0.0124108 -0.0118758 -0.0132634 
30 2 56.918 8.52247 17.4276 0.0204963 0.0238339 -0.0878785 
29 2 55.4182 9.67186 18.8078 0.00637059 -0.035548 -0.0400043 
22 1 58.8123 10.7855 13.9098 -0.00760867 0.016948 0.00157092 
241 2 39.955 6.51949 28.8709 -0.0967834 0.0105656 0.0269235 
33 2 58.5542 8.51151 15.8625 0.039227 -0.0684553 0.0853796 
3 1 56.0092 11.7134 16.3241 -0.0205623 -0.0225188 0.00743552 
245 2 37.7686 2.20952 30.6979 -0.101912 -0.045199 0.107272 
61 2 40.7415 3.60154 23.0772 -0.05785 0.0104594 0.00730146 
49 1 41.2905 3.17559 23.9017 0.00111001 0.0223143 -0.0196142 
66 2 47.105 4.07188 23.216 -0.0216205 -0.0322701 -0.00412446 
65 2 45.6513 3.47416 22.4851 0.0578359 -0.0318843 0.0266169 
50 1 43.7057 3.60377 22.6672 0.0135558 -0.0200352 -0.0102933 
53 1 44.8494 2.85871 22.9383 -0.00270785 -0.00294831 0.0339766 
62 2 42.5938 3.8036 22.2545 -0.0168545 0.0585022 -0.00691724 
17 1 55.8248 10.6424 18.5898 -0.0176111 -0.0215396 0.048702 
5 1 56.5334 11.5048 14.982 0.00162568 0.00780206 -0.0231055 
67 2 41.3041 1.28211 28.8115 0.0804772 -0.0434415 0.0412173 
72 2 47.009 -0.865266 28.3812 -0.0522192 0.00729115 -0.0067625 
68 2 43.9449 -2.63092 29.552 -0.0276351 0.144596 -0.0300822 
59 1 43.7953 -1.79357 29.0826 -0.019483 0.00482904 0.0299219 
56 1 43.7823 -0.809015 28.4093 -0.0274657 -0.0120775 0.0150605 
55 1 41.4597 0.554372 28.0035 0.0137094 0.00334907 -0.0212383 
217 1 36.3894 5.58378 28.9327 -0.00199992 -0.00324177 -0.0164939 
223 1 37.6631 5.62893 29.3772 -0.0363993 -0.00337826 0.00906098 
233 1 37.4828 3.35988 30.295 0.0196165 0.00610885 0.00759957 
63 2 40.0708 1.35323 23.8148 0.0631159 0.0348905 0.0738829 
51 1 40.7718 1.91168 24.2937 -0.00633285 -0.00675 -0.00914677 
64 2 39.5931 0.573559 26.6704 -0.0288417 -0.0257248 -0.0555734 
34 2 58.3361 9.72125 13.4994 -0.0676711 0.0315773 -0.0157939 
52 1 40.6922 0.726748 26.84 -0.0109631 -0.0316911 0.00247895 
44 1 41.2967 1.17586 25.6002 -0.00626986 0.0116658 -0.0149437 
242 2 37.2027 4.52631 31.5125 -0.0571694 0.0322276 0.0174632 
230 1 37.7466 4.76829 30.6044 0.00128455 0.00965561 0.00937105 
54 1 47.2166 3.08656 23.8432 -0.00990897 0.00909341 -0.0140693 
45 1 45.6782 2.81138 24.07 -0.00689603 -0.000144333 -0.00779371 
60 1 46.6133 -0.0159389 27.91 -0.0348333 0.0123646 0.00224139 
57 1 47.513 2.70216 25.1514 0.0153718 -0.00624078 -0.00339743 
48 1 45.0679 -0.0760692 27.7039 -0.00143256 -0.0011247 0.0108501 
47 1 46.774 1.80994 26.1418 -0.0130665 0.0188908 -0.00116189 
42 1 44.8854 1.09392 27.1137 0.0202975 -0.00348887 -0.00783994 
41 1 45.4164 1.79757 26.266 0.0268696 0.00211185 0.0206244 
39 1 44.8713 2.42916 25.1816 0.00418484 0.00195484 0.00083531 
37 1 43.5462 2.23773 24.8965 0.0229859 -0.0169557 0.00100417 
43 1 42.8641 3.10399 23.8651 -0.0214163 -0.00683191 -0.00966578 
38 1 42.802 1.76791 25.9225 -0.00383307 -0.0106517 0.0317105 
40 1 43.601 1.42562 27.0854 0.0245954 -0.0136209 -0.0325721 
46 1 42.8904 0.548845 27.8238 0.00120899 -0.0151854 0.00867377 
58 1 47.0592 1.34804 27.4127 -0.0320687 -0.00599357 0.000593976 
70 2 47.9666 0.78997 26.8501 0.0840602 -0.00656993 0.0695921 
69 2 48.6758 2.67109 25.4273 -0.101537 0.015821 -0.0666465 
218 1 36.0968 6.74243 28.1223 -0.00287667 0.0129366 0.0186868 
229 1 38.8349 6.49033 28.5854 -0.00206979 0.0045092 -0.00281143 
231 1 38.5575 7.50219 27.5874 -0.00179744 -0.0150038 0.00999504 
243 2 39.1306 8.27254 27.6159 0.0306814 -0.0424284 -0.00689864 
224 1 37.1211 7.75646 27.6492 0.0106709 0.0141061 0.027652 
232 1 36.599 9.06217 27.0385 -0.006585 0.00619811 -0.00602401 
244 2 37.5485 9.72583 27.4262 0.0328791 -0.046606 -0.0408062 
26 2 54.6056 11.6889 20.1306 -0.0895357 0.0425502 0.00379801 
246 2 36.6358 1.31289 29.6496 -0.0629545 -0.0734416 -0.00700787 
14 1 55.4866 11.9342 18.9661 0.0263407 0.0377968 0.000323243 
225 1 36.1034 3.24436 29.5742 0.0137968 0.00779385 0.000161877 
539 2 59.6897 35.0417 -8.76486 0.0151975 -0.0373711 0.0298327 
527 1 60.0229 35.8559 -9.42832 0.00456368 0.00235951 -0.00673567 
278 2 59.6843 34.1559 0.584888 -0.0156648 0.00614044 0.0332259 
27 2 55.264 16.8412 18.5571 -0.0413257 -0.055937 0.0194708 
7 1 55.3893 13.323 18.3615 -0.0174208 -0.0113402 0.0260089 
12 1 57.8107 13.2221 13.5864 0.00593875 0.00252965 0.0114031 
4 1 55.7392 13.9249 14.6322 -0.0020874 0.0295253 -0.0166064 
13 1 55.6617 14.7698 18.9704 -0.00740231 0.000250349 -0.00199361 
6 1 56.6364 12.8137 14.4044 0.0161904 0.0257126 0.0380426 
1 1 55.32 12.9913 16.9338 0.000768727 -0.00488228 0.0406225 
15 1 55.1468 15.8162 18.0664 0.00544608 -0.013795 0.000174131 
2 1 55.1865 14.2171 16.1359 -0.00524957 -0.00987824 -0.00521264 
8 1 55.1635 15.502 16.6256 -0.0212988 -0.00161058 0.0254935 
28 2 56.4037 17.2597 16.2559 0.00636348 0.0519215 0.0758239 
16 1 55.4009 16.8341 16.0055 -0.00435563 0.00474688 0.0185519 
19 1 55.2682 16.7997 14.47 -0.0132541 0.0157137 0.0208766 
10 1 55.8807 15.4356 14.3731 -0.0173298 0.000216605 0.0128436 
31 2 54.4311 17.4402 14.1678 0.104319 -0.0374109 0.0464892 
24 1 58.8412 12.1057 13.2922 0.0138506 -0.0215992 0.0273228 
20 1 57.154 15.5912 13.5275 0.022683 0.0245058 -0.000339962 
25 2 56.7148 14.5764 19.3702 0.0866285 -0.0360946 -0.073389 
32 2 57.4364 16.6501 13.4621 0.0259015 -0.098782 0.00839511 
23 1 58.174 14.6613 13.7388 -0.0330715 -0.02168 -0.0119563 
35 2 58.7705 14.7452 12.8285 0.0272307 -0.0506184 0.00817508 
36 2 59.1596 12.2589 12.2625 -0.0502319 -0.154107 -0.0328043 
101 2 59.5977 34.4758 26.399 0.000415481 0.0396389 0.0256539 
514 1 61.6502 -11.5364 -10.666 0.0128915 -0.000828709 0.005764 
507 1 61.6162 -8.22795 -7.7747 0.00989044 0.0105461 -0.00558825 
520 1 63.9484 -11.191 -11.3613 0.00626897 -0.00919729 0.0057609 
512 1 63.7673 -9.91858 -10.5321 -0.0253665 0.00136686 0.0156635 
508 1 61.3055 -10.0373 -10.0998 0.00810692 -0.00405669 -0.00761384 
519 1 64.9845 -8.94786 -10.3048 -0.0108926 0.0113293 -0.00826376 
506 1 62.4796 -9.12126 -10.2015 0.00602318 0.00458394 0.0139744 
517 1 65.0131 -8.52049 -8.87152 -0.00472459 0.00409446 -0.0161485 
511 1 63.7782 -7.86962 -8.61044 0.00863398 0.0114174 -0.000459927 
505 1 62.3851 -8.17749 -8.98781 -0.00880448 -0.012161 -0.0116249 
531 2 65.25 -8.27339 -11.2887 -0.0358098 -0.0458123 -0.115661 
518 1 64.0558 -6.64151 -7.88315 -0.00626683 -0.00209246 -0.0324115 
529 2 66.0129 -8.22663 -8.93105 0.000560038 -0.0510365 -0.0413897 
521 1 63.0833 -6.19959 -7.17609 0.00631571 -0.00342835 0.016354 
509 1 60.887 -9.25362 -7.42248 -0.00306738 0.0230831 -0.00265106 
513 1 61.938 -7.12092 -6.73341 0.00487367 -0.0117797 0.00863544 
530 2 65.1932 -6.18661 -8.31504 0.0477363 0.0117515 0.0157477 
276 1 66.2666 -10.2626 3.56223 -0.0192441 0.0179489 -0.00516012 
510 1 60.5961 -9.81724 -8.79032 -0.00282343 -0.0105439 0.00708948 
140 2 78.1206 7.89543 -9.13472 -0.00111358 0.00424702 0.0519302 
139 2 78.0183 8.25924 -7.02955 -0.0470963 0.0684718 -0.0703813 
128 1 78.6948 8.96649 -9.44931 0.0171747 -0.0134352 -0.00288679 
143 2 78.3487 9.34037 -11.3849 0.0378185 -0.0295542 0.0485562 
127 1 78.3531 9.12727 -7.02276 0.0128456 0.0473528 -0.00624529 
118 1 78.9679 9.73917 -8.24727 -0.00501546 -0.022211 -0.00809609 
131 1 78.6079 9.92247 -10.5443 0.00516253 -0.00445409 -0.00799581 
112 1 79.6747 11.0576 -8.31358 -0.00929959 -0.0229935 0.00275806 
132 1 80.3176 11.3463 -11.5197 -0.0212275 0.000269332 0.00592106 
114 1 79.9483 11.8677 -9.35972 0.0316946 -0.000493084 -0.0151387 