ITEM: TIMESTEP
90000
ITEM: NUMBER OF ATOMS
576
ITEM: BOX BOUNDS pp pp pp
-1.2000000000000000e+01 8.4000000000000000e+01
-1.2000000000000000e+01 3.6000000000000000e+01
-1.2000000000000000e+01 3.6000000000000000e+01
ITEM: ATOMS id type x y z vx vy vz 
64 2 6.51876 -9.76851 -5.45143 0.0316782 -0.0123766 -0.00264853 
39 1 10.7674 -11.303 -8.91324 0.0402976 0.0168977 -0.000927216 
67 2 7.40776 -7.60651 -5.46391 -0.0134772 -0.0757291 0.0555933 
56 1 10.0933 -6.83053 -6.32297 -0.00315203 -0.00171702 0.0200622 
46 1 9.38128 -8.15537 -6.49362 0.00662004 0.0343396 -0.00977113 
68 2 9.71862 -6.0671 -5.36529 0.031952 0.019483 -0.033971 
48 1 11.7051 -8.13134 -7.36001 -0.00426612 0.00684025 -0.00604003 
59 1 11.4683 -6.73936 -6.85399 0.010544 0.0221632 0.0163059 
55 1 8.1543 -8.33524 -5.69713 0.0150748 0.00148803 0.00749516 
297 1 5.23677 11.6719 1.98888 -0.0442264 -0.00884658 -0.00374242 
52 1 7.42885 -9.55077 -6.16525 0.0253933 -0.00722956 0.013247 
42 1 10.7832 -8.92988 -8.26029 -0.0103068 0.0348653 -0.00356718 
40 1 9.69498 -9.17924 -7.35748 0.0180625 0.00732189 -0.00162652 
44 1 7.80185 -10.772 -6.91566 0.0175601 0.000515059 0.0225936 
38 1 8.9616 -10.2949 -7.69019 0.0332114 -0.00716334 0.0211807 
41 1 11.387 -9.91218 -9.17947 -0.0337303 0.0162292 -0.01011 
312 1 9.21563 9.2706 3.87639 -0.00459916 0.0218495 -0.0265648 
309 1 5.47105 9.88164 3.67902 0.0192455 -0.00570843 -0.00695329 
321 2 5.28298 8.95983 4.032 0.0715238 -0.0971045 -0.0177512 
306 1 4.69163 11.0057 3.28213 0.0276516 -0.0198832 0.0111 
307 1 11.329 11.8428 -0.436487 -0.00450253 0.0247116 -0.0206894 
322 2 7.2679 8.54749 5.0738 0.10579 0.0148196 0.0166103 
310 1 7.84068 8.95143 4.04392 0.0200348 0.0164275 0.0279543 
293 1 7.44421 10.9479 2.3965 0.0212734 -0.0159896 0.00642808 
299 1 6.99819 9.92101 3.28788 0.00510714 0.00952568 -0.0118169 
324 2 9.90995 8.552 4.20506 -0.0481017 0.0186379 -0.0908855 
323 2 11.9278 8.8468 2.68299 0.0366825 -0.0203721 -0.00827896 
308 1 11.5601 10.2606 1.51305 -0.00187567 0.0372088 0.0116662 
298 1 10.6112 11.0317 0.925099 -0.0246607 -0.00794545 0.0120913 
300 1 9.76568 9.55311 2.66787 0.00507618 -0.0116454 0.00370121 
311 1 11.0706 9.17882 2.20733 0.0161197 -0.0152193 -0.0157273 
294 1 8.66373 10.5932 2.13294 0.00367331 -0.000746001 -0.0195065 
292 1 9.20888 11.1039 0.780154 -0.00459289 0.00637859 0.00831372 
37 1 9.32124 -11.2907 -8.6152 0.00481287 0.00326769 -0.00380081 
318 2 3.70715 10.7738 3.65146 0.0262395 -0.0458393 0.0653458 
380 1 12.0207 11.6708 32.0397 0.00958649 0.00374716 0.000108062 
391 2 9.61501 11.4998 32.9393 -0.0464204 -0.012983 -0.0886712 
392 2 11.6143 10.5615 31.9217 -0.0264952 0.0432159 0.0967248 
375 1 9.12969 14.7917 -11.8489 -0.00297163 -0.0229237 -0.0164972 
387 2 8.62303 14.5645 -10.8593 0.080583 -0.00420888 -0.026291 
385 2 8.37885 16.724 -11.4221 0.010767 -0.0182297 -0.0193907 
51 1 7.19974 36.0524 -6.75965 0.0191327 0.00842466 -0.0108863 
61 2 7.2534 33.8645 -7.5733 0.0489828 0.0825205 0.00583515 
49 1 7.71626 34.8476 -7.41087 0.0173414 0.0154838 -0.00226592 
43 1 8.97215 35.2343 -8.34596 0.00362622 -0.01062 -0.0256292 
304 1 10.4963 12.7495 -0.910115 -0.0235301 0.0107696 -0.0178998 
302 1 5.30714 13.8896 0.57333 -0.0145824 -0.00457357 -0.0374618 
50 1 9.24026 34.2646 -9.37452 0.0170475 -0.000313005 -0.000342123 
53 1 10.7385 34.5539 -9.70046 0.0097744 0.0237995 -0.0198539 
62 2 8.7097 33.5264 -9.35239 0.0480653 0.0374616 -0.0295717 
65 2 10.7371 33.2328 -9.69795 -0.0899183 0.0922911 0.00491967 
45 1 11.6289 35.6997 -9.75276 -0.0215723 -0.0042054 -0.0247963 
289 1 7.22155 12.6857 0.970283 -0.02027 0.00556414 -0.0182159 
315 2 8.07742 13.721 -2.60228 -0.00106057 0.0252429 0.0107412 
317 2 3.63233 13.3014 1.87705 -0.0790773 -0.0278199 0.0327475 
63 2 6.29094 36.033 -5.99526 0.0864482 0.0755915 0.0136757 
305 1 4.63651 12.9579 1.53018 -0.00524382 0.00133685 0.0100444 
314 2 4.78393 14.6716 0.253331 -0.00541232 -0.0923464 -0.048218 
301 1 7.11343 14.2433 -0.979741 -0.0155715 -0.00212203 -0.0255495 
296 1 9.02038 12.9968 -0.79627 -0.0355655 0.0166677 -0.0331918 
303 1 8.22733 13.6234 -1.37943 -0.00958243 -0.0047226 -0.0128044 
313 2 6.67873 14.6547 -1.77403 -0.0455275 -0.0869221 0.0902197 
290 1 8.40208 12.2984 0.274962 -0.0282794 -0.0031742 0.00104353 
295 1 6.58362 13.6102 0.0613389 0.00145322 -0.0211834 0.00761468 
316 2 11.6201 13.0232 -1.72826 -0.097235 0.0120118 -0.0129937 
291 1 6.5027 12.0983 1.95756 -0.0187103 0.00852255 -0.0057865 
251 2 4.31439 19.208 29.9858 0.0227554 0.00459599 -0.0577379 
239 1 4.2169 20.3522 29.8982 0.0326097 -0.00940892 0.0205427 
228 1 4.52723 21.3863 28.977 -0.000204851 0.00410319 0.0135719 
252 2 4.39659 20.2572 27.3396 -0.0094677 0.0275927 0.0341532 
222 1 4.43112 22.7737 29.711 0.00149286 0.005873 -0.0140874 
240 1 4.12096 21.2178 27.5049 -0.00629545 -0.00439365 -0.0228465 
250 2 3.85345 23.1475 26.08 0.0126793 -0.0857667 -0.00262979 
238 1 3.71838 22.4329 26.8819 -0.00771559 0.000728145 -0.00177575 
219 1 4.57429 24.8818 29.5588 0.0118595 -0.000604506 -0.00304005 
225 1 4.32149 26.0607 28.8691 0.0104995 0.0123657 -0.0175719 
221 1 4.55844 23.841 28.9063 -0.0229684 -0.0129713 0.00507499 
237 1 3.58847 24.8028 27.1709 -0.0150317 0.0103121 0.00171797 
227 1 3.88117 23.6068 27.6889 -0.0124882 0.00619822 0.00331299 
249 2 3.25674 24.6042 26.1774 0.0261457 -0.0354519 0.0682354 
234 1 3.78894 26.0725 27.5218 0.0189232 -0.0255543 0.00129381 
246 2 3.33184 26.8229 27.2066 -0.026049 -0.0874971 0.0686409 
233 1 4.49225 27.2746 29.6403 -0.0013441 0.00518423 -0.00253459 
245 2 4.15896 27.977 28.7587 0.0237878 -0.0602655 -0.0525616 
374 1 9.71958 18.3308 34.6635 0.00741856 -0.0260616 -0.0143417 
369 1 11.8579 18.1677 33.6008 0.0134618 0.0322626 0.00991352 
363 1 11.7385 16.747 33.7861 0.0224701 0.0241824 -0.0129632 
241 2 2.98623 26.9785 33.7531 0.0113002 0.0409162 0.00604845 
376 1 9.14756 12.8456 34.4507 0.00272587 0.00472971 -0.0159029 
361 1 10.9104 16.1575 34.5017 0.0129193 0.00798845 0.0011818 
367 1 9.88948 17.0086 35.1877 0.0055615 0.0188565 -0.00311813 
362 1 10.8951 14.7612 34.2653 -0.00421146 -0.00246973 -0.0189247 
364 1 11.3956 14.1007 33.1977 0.00741242 0.0355799 -0.00498196 
370 1 10.9766 12.6853 32.7449 0.0240055 0.00517276 -0.0172492 
368 1 9.71119 14.0617 34.9993 0.0039923 0.00333451 -0.0145505 
229 1 3.78929 26.3153 33.2352 0.0174542 0.00586469 0.00663756 
220 1 4.78142 22.9189 31.1211 0.0156895 0.00317481 0.020152 
236 1 4.54591 20.4129 31.2389 0.0184665 -0.0240915 0.0208704 
248 2 4.24316 19.5506 32.0095 0.0909056 -0.0470187 0.0434135 
226 1 4.85289 21.6501 31.8633 -0.000136504 0.00783873 0.0110121 
247 2 5.45664 20.5915 33.6085 -0.097859 0.0427841 0.090314 
235 1 5.21241 21.7297 33.394 0.0185678 0.0161859 0.0320703 
218 1 4.54186 24.0436 32.0247 0.0162832 0.0138834 0.00495108 
244 2 6.41736 22.9889 34.7107 0.0263615 -0.0664285 0.114411 
232 1 5.64906 22.919 33.8699 -0.014288 0.00499605 -0.00135104 
224 1 5.09984 24.328 33.254 0.0188255 0.0169978 -0.0121815 
386 2 8.81509 19.0983 34.7095 -0.0214389 0.0680508 0.0395496 
377 1 10.8916 19.0257 34.1284 0.033189 0.0166516 0.0145033 
243 2 4.21841 25.1604 34.981 0.00636202 -0.0714764 -0.0208273 
389 2 10.4606 19.9847 33.8594 0.00415211 0.0159709 0.0249657 
231 1 4.34369 25.2839 34.055 0.00388399 -0.0171509 0.0176331 
230 1 3.87003 27.4775 30.9045 0.000484619 -0.0107485 -0.00509129 
242 2 3.56047 28.5246 31.1889 0.0942645 0.0624708 -0.01512 
223 1 4.42551 26.2732 31.7967 0.0233585 -0.00760089 -0.0188172 
217 1 4.70366 25.2362 31.0633 0.0156287 -0.00755837 0.0182581 
388 2 8.43029 12.166 34.8528 0.0645862 0.0257705 -0.0550521 
373 1 8.95863 16.1792 35.8668 0.0105174 0.0121271 0.0117829 
379 1 10.0674 12.2053 33.5502 -0.000167549 0.00572043 -0.0240154 
568 2 -11.1466 29.973 11.9697 0.00372853 0.0339039 -0.098078 
571 2 -11.7656 27.8387 12.2511 0.00963014 -0.00533629 -0.106576 
60 1 13.1631 -8.23083 -7.50198 0.00776033 -0.0310821 -0.00868905 
58 1 13.6654 -8.94836 -8.34621 -0.0186659 0.00820741 -1.85997e-05 
72 2 13.8594 -7.48689 -6.78234 -0.0478732 0.0789167 0.0740087 
70 2 14.6764 -9.32983 -8.96983 -0.0568783 0.101008 0.0795066 
47 1 12.8718 -10.0476 -9.24477 -0.00758168 0.0161069 0.0182052 
319 2 12.2265 11.0729 -0.399379 0.00162437 0.0115118 -0.0335058 
57 1 13.6546 -11.152 -9.64319 -0.000855412 -0.00179704 -0.015141 
320 2 12.5807 10.4024 1.36994 -0.0185109 -0.000271539 0.000517763 
69 2 14.7257 -11.1889 -9.47788 -0.0112974 0.0453093 0.0121227 
71 2 12.305 -5.89914 -6.64052 -0.0694891 -0.034545 0.0223582 
395 2 14.2009 11.4041 31.8807 -0.0404992 -0.0395842 -0.00964289 
281 2 28.6037 11.2612 29.2274 -0.0275159 -0.0498889 -0.0625328 
277 2 32.4339 11.19 32.517 0.0090878 -0.0718081 0.0315464 
278 2 31.0061 10.6266 30.2397 0.0263095 -0.0176543 0.015143 
266 1 30.2945 11.564 30.3853 -0.00185267 0.033307 0.00811215 
95 1 24.4805 23.3754 -7.38204 0.00649105 -0.00413321 -0.00460252 
107 2 23.4669 23.7565 -7.69726 0.0799395 0.064389 -0.0662513 
104 2 25.9614 25.041 -7.25961 -0.0542904 -0.0294965 0.0486898 
92 1 25.8507 23.8682 -7.34143 0.00904998 -0.0127559 0.00203917 
100 2 28.4598 25.1051 -4.39468 0.0467924 -0.0838281 -0.0242404 
91 1 28.2277 24.0279 -6.32547 0.0190367 0.00787534 0.0276574 
99 2 28.7612 24.5274 -2.0488 -0.0848615 -0.0438261 0.0437604 
66 2 12.8694 35.3968 -11.4264 -0.000125933 0.0328821 -0.0375651 
54 1 13.0112 35.7689 -10.4211 -0.00813704 0.0331302 -0.0239997 
98 2 27.5216 19.4341 -0.634083 0.0525318 -0.0198569 0.0545231 
106 2 22.2047 19.664 -6.9353 -0.0426646 0.0458427 -0.0661865 
93 1 24.0219 18.5257 -4.48011 0.00491535 0.0206316 -0.0409597 
102 2 25.1227 17.168 -3.12195 -0.0452058 0.015021 -0.0311229 
105 2 23.1975 18.4375 -3.91043 -0.0295281 0.04611 0.0137677 
90 1 24.9895 18.0407 -3.59664 -0.0115845 0.01062 -0.0121341 
108 2 22.2456 21.5613 -7.51462 -0.0379459 0.148283 -0.125141 
96 1 23.1871 21.3319 -6.91573 0.0101924 0.0482117 -0.030151 
94 1 23.2284 20.0692 -6.57824 0.0192386 0.0314421 -0.0296638 
84 1 24.4692 21.9923 -6.77993 -0.00742853 -0.00742396 -0.00336429 
82 1 26.9401 23.136 -6.70375 0.0263533 0.00684458 -0.00560313 
88 1 28.0476 24.1879 -4.88604 -0.00423185 0.0148646 0.0317542 
76 1 26.976 21.8625 -5.96251 -0.0146594 -0.0178386 0.0113841 
87 1 28.4335 23.537 -2.41491 0.00774737 0.0179913 0.00302514 
80 1 27.8461 23.1634 -3.78518 0.00805736 0.0214018 0.0020346 
97 2 28.5486 22.7335 -0.67378 -0.0735491 -0.00406301 -0.00946855 
85 1 28.361 22.4056 -1.6832 0.0140688 -0.0131486 -0.00598863 
86 1 27.6018 19.8198 -1.68472 -0.0100789 -0.0158962 -0.00908214 
89 1 27.6266 18.7109 -2.63877 -0.000286117 0.0146354 -0.0201973 
81 1 26.2858 18.7315 -3.42472 0.0141264 -0.00475011 -0.000831842 
79 1 27.9376 21.1506 -2.18703 -0.0231233 -0.0252598 -0.0378685 
73 1 27.2407 20.8143 -3.56505 -0.00430705 -0.0107087 -0.0137067 
74 1 27.5279 21.9334 -4.44887 -0.00244575 0.0141364 0.0153213 
75 1 26.3063 19.9216 -4.2704 -0.0222015 -0.0234407 -0.0105886 
78 1 25.6519 21.5625 -5.96122 0.00813992 -0.00472009 -0.0281091 
77 1 25.4139 20.1102 -5.35771 -0.0166834 0.0168625 -0.0117166 
83 1 24.1882 19.3956 -5.63445 -0.00983077 0.0128372 -0.0197756 
101 2 27.7732 17.6833 -2.12009 0.0373035 0.0348981 0.118407 
103 2 29.1492 23.9429 -6.84264 0.0751737 0.00988993 -0.137601 
533 2 35.3425 17.502 22.8768 0.0564648 -0.0315486 -0.00224275 
521 1 34.6289 17.2825 23.7488 -0.0097787 0.00874649 -0.00348993 
518 1 33.2647 17.002 23.2773 -0.00681862 -0.0141017 0.0126578 
531 2 30.0176 20.7418 23.1645 -0.0999415 0.0339477 -0.0404098 
519 1 30.7281 20.1997 23.7607 0.0177774 -0.00798604 0.0194574 
511 1 32.5926 18.3936 23.8783 -0.00902926 -0.0173856 -0.0054 
517 1 31.3319 18.9613 23.4073 -0.00756987 -0.0150908 -0.00162891 
529 2 31.2078 18.0062 22.8618 0.027257 0.0697928 0.0227045 
505 1 33.0796 19.0359 25.0447 -0.021765 -0.00869874 0.0151386 
512 1 31.3671 20.9275 24.8317 -0.0329906 -0.0190655 0.0171979 
532 2 31.998 23.0757 24.2397 -0.0511039 -0.0275286 0.0764535 
270 1 27.8769 14.0326 28.9425 -0.0167635 -0.0243443 0.0120791 
273 1 27.1259 15.2972 29.2765 -0.0105949 0.00364127 0.000287267 
285 2 26.3067 15.2933 29.8474 0.0471173 -0.0504233 0.0225605 
263 1 28.1617 16.2684 29.5361 -0.00473403 0.0152391 -0.0187971 
261 1 28.9165 13.57 29.6805 0.0144255 0.00882619 -0.0143813 
282 2 27.4446 12.9685 28.6512 -0.0528481 0.057516 -0.0257888 
284 2 32.2052 19.6729 32.8692 -0.0988516 0.0580141 -0.0445549 
286 2 27.0697 18.0438 29.2082 0.0329799 0.0175578 0.000802777 
274 1 28.0099 17.6161 29.5229 -0.0190041 -0.00296758 0.00351806 
530 2 33.3427 16.2472 22.5465 0.080509 0.124204 0.0197267 
365 1 12.8406 15.9191 33.1228 -0.00445789 0.000357922 0.0234778 
257 1 29.6025 15.8751 29.9429 -0.0324437 -0.00484681 0.0139216 
255 1 29.705 14.5924 30.4358 0.00319377 0.00911262 0.000367591 
288 2 28.317 19.4806 29.5322 0.0315356 -0.047974 -0.0094553 
506 1 32.5999 20.4167 25.4374 -0.0043635 -0.00687234 0.0102773 
520 1 31.6683 22.4538 24.9396 -0.0105756 0.0223484 0.0355116 
508 1 33.2122 21.0163 26.6084 -0.00642311 -0.0248161 0.016729 
513 1 34.7635 17.111 25.1776 0.0106408 -0.023445 0.023116 
507 1 34.2876 18.4053 25.6484 0.0105356 -0.00157216 -0.0151965 
510 1 34.0726 20.166 27.4014 0.00060027 -0.0299926 -0.000665908 
509 1 34.7202 19.1093 26.6012 0.00794613 -0.0224218 0.0176625 
516 1 34.4179 20.501 28.808 -0.0216817 -0.0445336 -0.00269463 
528 1 35.364 19.6931 29.5283 -0.00450612 -0.00489214 0.0047288 
514 1 32.6832 22.1771 27.2758 -0.0184539 -0.00938126 -0.00964683 
524 1 33.1119 22.4747 28.6473 0.00637149 -0.0273889 0.0177013 
527 1 33.8061 21.5019 29.3788 -0.0108584 -0.018397 0.00635421 
539 2 34.2407 21.6731 30.2921 0.0567909 -0.041351 0.0323121 
275 1 30.9835 19.4087 30.9484 -0.0175585 0.000290943 -0.0076756 
515 1 35.9712 18.7995 27.3349 0.0067017 -0.00700195 -0.00978794 
540 2 35.6113 20.1035 30.4538 0.0125001 -0.0547026 0.04604 
523 1 31.9428 22.9037 26.2606 0.00517603 -0.0127937 0.00223804 
535 2 31.2456 23.8448 26.8287 0.0364154 -0.000277642 -0.0652833 
536 2 33.4949 23.5362 28.813 0.0544153 -0.0392388 0.05221 
382 1 14.6687 15.5883 31.9337 0.0297054 0.011661 -0.019756 
384 1 14.6734 14.2217 32.3543 0.00752136 -0.00833158 -0.00744981 
372 1 13.4659 13.5476 32.2228 0.0190033 0.00486794 -0.00438465 
394 2 15.2445 16.5885 31.3359 0.103254 -0.0151344 -0.0195195 
396 2 15.3419 13.8752 31.5517 -0.0241891 -0.0621733 0.01148 
381 1 13.9548 18.1828 32.2624 0.00709243 0.0123311 -0.00844424 
393 2 14.8571 18.547 31.8376 0.0629951 -0.0360941 -0.0586709 
371 1 13.7827 16.6562 32.3432 0.00658991 -0.0159687 0.0161651 
259 1 31.1656 12.5497 31.2046 -0.0227222 -0.00569762 0.00472218 
253 1 30.8234 14.1368 31.1092 -0.00757756 -0.00389269 0.00968245 
265 1 32.0114 12.275 32.292 0.0214951 0.0279435 -0.00519822 
268 1 33.1728 15.8411 33.1421 -0.0054194 0.025453 -0.0153839 
267 1 32.8024 13.2976 32.9816 0.00378077 -0.00140776 -0.0298692 
260 1 32.7375 14.6182 32.5332 -0.00473523 -0.0128399 0.00642948 
254 1 31.7086 15.1936 31.4873 -0.00162251 -0.00985603 0.0176831 
256 1 31.5674 16.444 31.2866 -0.0216475 -0.01044 -0.0163243 
262 1 32.2081 17.5566 31.9308 0.00049074 -0.0117862 0.00696101 
271 1 33.1759 17.2086 32.8803 0.0264621 -0.0220778 -0.00121184 
258 1 30.4437 16.8687 30.3655 -0.0136656 -0.0103709 -0.0228721 
279 2 33.1914 12.7246 33.8713 0.0696116 0.00211993 0.0217337 
280 2 33.6195 15.5544 33.9899 0.0227022 0.0296909 -0.164326 
283 2 33.7424 17.9376 33.4288 -0.076804 -0.0161429 -0.03542 
276 1 28.9404 18.6263 29.6249 0.0141005 0.00278357 0.0127317 
287 2 30.4402 20.1634 31.3538 0.0219176 -0.0268338 0.0551984 
272 1 31.8172 18.8935 32.0039 0.0138466 0.0213612 -0.00918453 
264 1 30.1854 18.3707 30.2517 -0.0183725 -0.0223206 -0.0106305 
383 1 13.3972 12.0596 31.9902 0.00144592 0.0162525 -0.020726 
366 1 12.4308 14.5568 32.8013 0.0186211 -0.00189664 0.00260373 
378 1 13.1844 18.7875 33.0958 -0.00292519 -0.0166293 0.0209801 
390 2 13.0887 19.7727 33.6449 0.0624152 -0.0454955 0.0292223 
269 1 29.1214 12.0485 29.9423 -0.0191291 -0.00788926 -0.000765651 
354 2 57.6418 -7.1261 11.862 -0.00446278 -0.0600978 -0.0414284 
345 1 55.3637 -6.23662 11.8783 0.0211903 -0.0348593 -0.021208 
357 2 54.8744 -6.09107 10.7373 -0.0116059 -0.00996552 0.0347283 
140 2 39.0011 1.76182 10.6843 0.0248945 -0.0115195 0.0638427 
143 2 38.2757 3.81269 12.1128 0.1154 -0.027879 0.0611786 
139 2 40.551 -0.00433654 11.4123 0.0268176 0.0838003 0.0604989 
128 1 39.2619 1.94511 11.853 0.0129846 -0.0119294 0.00253177 
334 1 52.3896 -6.2756 17.31 0.00823398 -0.00317432 0.00102176 
325 1 55.3834 -7.55892 15.5321 -0.000591566 -0.0109513 -0.00773746 
326 1 54.4024 -7.16906 16.6371 -0.0164763 0.0171036 0.0132071 
331 1 56.5469 -8.13932 16.12 -0.0240248 0.0172254 -0.0104514 
337 1 56.7803 -8.31294 17.6598 -0.030298 0.0191598 0.0214565 
332 1 54.3981 -7.9111 17.885 0.00142283 0.0108632 0.0132845 
339 1 55.584 -8.61109 18.2914 -0.00317966 0.0297693 0.0205925 
351 2 55.6284 -9.25398 19.2758 -0.0963445 0.106105 0.0117395 
349 2 57.5771 -8.91274 18.2612 0.133874 0.0195669 -0.0159764 
327 1 55.5499 -7.29927 14.1778 -0.0334779 -0.0115613 -0.000651248 
333 1 56.7388 -7.42449 13.4333 -0.0103317 0.004145 0.000521241 
338 1 57.5835 -8.56533 15.2561 -0.00603688 0.000712655 0.00486422 
350 2 58.3588 -8.88443 16.1831 0.0930847 0.0243692 0.0971782 
341 1 57.8516 -7.83271 14.1082 0.0100815 -0.000474946 0.00050923 
353 2 58.7711 -8.71546 13.87 -0.00639741 -0.00306928 -0.0367513 
137 2 41.9588 1.15653 20.1488 0.0682304 0.0144815 0.0897328 
133 2 43.22 -1.76839 17.412 0.0194254 -0.0177533 0.0257033 
121 1 43.1188 -1.02146 16.6197 0.0110523 0.0118832 0.00339389 
135 2 43.275 -1.79776 14.6313 0.0265072 -0.00307928 -0.0527967 
123 1 42.8612 -1.15067 15.1823 -0.0346815 -0.00315365 -0.0207673 
116 1 42.2012 -0.100596 14.3509 -0.00341156 -0.0269663 -0.0061128 
124 1 41.8692 -0.75766 13.1225 0.0157218 -0.0123019 0.00439701 
360 2 52.0357 -3.78822 12.6131 0.0317254 0.0391545 -0.0250221 
346 1 53.8774 -4.37975 12.664 -0.00757496 -0.00225927 0.00420964 
348 1 52.5872 -4.41799 13.2693 0.00218282 0.0156926 0.000122975 
336 1 52.4337 -5.07265 14.5481 -0.007762 0.0200564 -0.0140758 
359 2 51.7895 -3.26625 15.6964 0.029941 -0.0508691 -0.0297665 
347 1 51.9538 -4.31761 15.7936 -0.0178214 -0.0164143 0.000256901 
344 1 51.6555 -4.97413 16.9804 0.0286493 -0.0375013 -0.000417156 
136 2 41.8761 -1.78109 12.9203 -0.0655864 -0.0087109 -0.0117654 
328 1 53.1351 -6.66145 16.1045 -0.0319088 -0.00663847 -0.0315155 
330 1 53.5241 -5.84512 14.9955 -0.00594355 -0.00565894 0.000506433 
329 1 54.5316 -6.15824 14.0523 0.00798867 -0.012793 0.00345738 
335 1 54.4656 -5.6466 12.8416 -0.009357 -0.00906462 0.0047008 
118 1 40.4743 1.40058 12.8058 -0.0105191 0.00151188 -0.0011011 
144 2 36.9459 3.81157 13.7949 0.0286019 -0.00985153 0.00429259 
130 1 37.6106 3.23582 15.6278 -0.038249 -0.0098311 -0.0138478 
119 1 38.51 2.56467 16.624 0.00221901 -0.036322 0.0132671 
129 1 38.3069 1.71312 17.6972 -0.0181083 -0.00695009 -0.0230569 
111 1 41.0442 2.02984 16.7219 -0.00406741 -0.017556 0.0312138 
113 1 39.9141 2.38758 16.0813 0.0128884 0.000872063 0.0195274 
114 1 40.0612 2.44554 14.6441 -0.0122588 -0.0014932 0.000116709 
142 2 36.6952 3.58699 15.9664 0.0252021 -0.0325543 0.00963455 
141 2 37.3764 1.26795 18.0208 -0.00257307 -0.0431236 0.0176311 
132 1 37.8668 3.4165 14.3259 -0.0233539 0.0272153 0.03024 
112 1 40.6888 1.61514 14.0102 -0.0178094 0.0262866 0.0121316 
120 1 39.2363 3.27466 13.8936 -0.022949 0.00936566 -0.0094088 
117 1 40.7501 1.69217 18.25 0.000368601 0.0118498 -0.0014954 
126 1 39.4156 1.77782 18.59 -0.011812 0.0127048 0.014796 
115 1 42.6291 0.299364 16.8969 -0.007799 0.00679051 0.00523049 
125 1 41.7374 1.11041 19.1293 -0.0198995 -0.0189888 -0.00674334 
122 1 42.7707 0.695081 18.4097 -0.00488893 0.0090872 0.0367365 
109 1 41.7974 1.16851 16.1094 -0.0079856 -0.00253838 0.00895816 
110 1 41.7257 1.1599 14.7845 -0.000975433 0.00102339 0.027379 
352 2 53.0367 -8.49141 19.6335 0.105585 -0.0151179 -0.0387587 
343 1 52.0728 -7.22255 18.3743 -0.000519054 0.0096855 -0.00909354 
355 2 51.0957 -7.4292 18.6106 -0.0917236 0.0167974 0.0377795 
340 1 53.2091 -8.05907 18.5842 -0.0120295 -0.00534683 -0.00327943 
356 2 51.7593 -4.53353 18.0181 0.00659604 0.059448 -0.0499646 
138 2 39.1331 1.54406 19.6849 -0.00768283 0.0547085 -0.0412499 
134 2 43.2843 0.153939 19.467 0.0497796 -0.00958534 0.000957821 
131 1 39.0957 3.21383 12.3903 -0.0121687 0.006839 0.0307363 
342 1 56.4635 -7.06711 12.1536 0.0274501 0.0135234 0.00764464 
127 1 41.2375 0.248742 12.3217 -0.00408915 0.00700521 0.019366 
358 2 54.0754 -3.50665 11.9741 0.0878055 -0.105568 -0.0412081 
35 2 56.0768 29.4663 -5.85675 0.11093 -0.0548166 -0.078331 
36 2 54.5651 31.9001 -5.71069 -0.0367292 -0.0890817 -0.0416315 
32 2 57.527 28.8641 -6.65628 -0.0200784 -0.136616 0.00935924 
29 2 58.8669 35.2594 0.682102 -0.0167403 0.0402581 -0.0247093 
20 1 57.9041 29.9636 -6.40339 0.0168252 0.0128935 -0.0317007 
34 2 54.2633 33.6925 -4.02489 0.046722 0.0380981 0.0657193 
17 1 59.0719 34.8877 -0.327735 0.0126491 0.00522151 0.00752438 
30 2 56.0268 35.0675 -0.66738 0.0113367 -0.0141743 0.010104 
9 1 58.1463 34.2155 -1.24115 0.00636097 -0.00424537 -0.0143778 
21 1 55.8846 34.3894 -2.35985 -0.00744387 -0.00174749 0.0277574 
24 1 55.3953 32.4674 -5.39672 -0.00135567 -0.0137992 0.000919286 
22 1 55.0349 32.9035 -3.97652 0.00817339 -0.0136593 -0.00558066 
23 1 56.774 30.3804 -5.95688 -0.00729815 0.00421474 0.00963505 
12 1 56.5876 31.8488 -5.53965 -0.00096952 0.000323268 0.0101245 
10 1 59.2162 30.8188 -6.0098 0.00654491 0.0298831 -0.0217197 
6 1 57.4774 32.0381 -4.57879 0.00214775 -0.00493197 -0.0102572 
4 1 58.8544 31.8912 -5.04881 0.00307427 0.0132158 -0.00774768 
3 1 58.4054 33.0306 -2.19765 -0.00119406 0.00480895 0.00128922 
5 1 57.5151 32.7946 -3.37742 -0.00242132 -0.0404215 -0.00350093 
11 1 56.0455 33.14 -3.06057 0.00302441 -0.0268477 0.00462201 
1 1 59.7105 33.1132 -2.71686 0.0052662 -0.00585152 -0.0034294 
2 1 59.8282 32.4863 -4.15427 0.0323201 0.0301518 0.00236269 
33 2 54.736 34.8186 -2.33121 0.10458 0.0733937 -0.0604844 
18 1 56.7604 34.4999 -1.27595 0.0495443 -0.00298134 -0.00679998 
434 1 40.6466 16.3073 16.9537 0.0147294 -0.00185522 -0.0219962 
436 1 41.4978 15.7101 15.9949 0.0143771 -0.016875 0.00228194 
455 1 42.7383 14.1803 13.9187 -0.000991611 -0.00532209 0.013117 
440 1 39.3972 15.7321 17.4136 -0.00369096 -0.0174004 0.00989909 
448 1 38.7503 14.8092 16.5441 0.0172935 -0.00401137 0.00969975 
451 1 39.5911 14.6981 15.3118 -0.0024667 -0.0118265 0.0153432 
442 1 40.9067 14.9851 15.1208 0.0180499 -0.00495201 0.0223786 
452 1 41.4356 14.6377 13.7856 0.021269 -0.0197233 -0.00473519 
463 2 38.7294 14.1865 14.8151 -0.0238564 0.0148646 0.0120273 
464 2 41.1692 13.8391 12.8436 0.0166486 -0.0686406 0.0015648 
460 2 37.7988 14.5336 17.2751 0.0200738 -0.00556724 -0.0146082 
435 1 42.5982 17.2682 18.184 -0.000216047 -0.00334675 -0.038163 
438 1 42.8286 15.9222 15.6754 0.0102951 -0.00191999 -0.0135411 
444 1 43.4799 14.7357 15.1144 0.00564749 0.00407021 0.0109388 
468 2 45.2545 13.3257 15.3564 0.0135666 -0.0441964 0.0325307 
437 1 43.1102 16.6648 16.9265 -0.0179353 0.00231379 0.00168941 
443 1 44.5331 16.5029 16.9623 0.0202037 0.00816783 0.0328095 
454 1 45.315 15.2302 16.6709 -0.0108104 0.00346345 0.0195624 
466 2 46.2294 14.9624 17.4279 -0.0703246 0.00309684 0.0483209 
456 1 44.7859 14.3435 15.7765 -0.00499647 0.00443857 0.010254 
453 1 45.4072 17.3796 17.7742 -0.027296 0.00722047 0.00165249 
465 2 46.5323 17.2716 17.6142 -0.0152553 0.0332471 0.00283021 
467 2 43.7147 13.7137 13.4119 0.0350722 0.0744129 0.0304974 
433 1 41.2334 16.902 18.248 -0.0295065 0.00775605 0.019524 
439 1 40.658 17.4356 19.5976 -0.00550118 0.00707926 -0.00171042 
446 1 41.6477 18.0808 20.4939 0.00799336 0.00517723 0.00670897 
458 2 41.6683 18.173 21.4636 0.0235889 -0.00506365 -0.045827 
445 1 39.3856 16.6399 19.7133 0.0233674 0.00046047 -0.00134431 
459 2 37.5215 16.9482 18.4457 0.0151639 0.0035784 -0.0192075 
447 1 38.6421 16.399 18.4569 0.0208927 -0.0308813 -0.0149684 
441 1 43.6024 18.13 19.1826 0.0272435 0.00910032 -0.0139815 
450 1 44.9259 18.2396 18.7316 0.0211845 0.0195768 -0.000870999 
449 1 42.9734 18.7179 20.2382 -0.0111239 0.018861 0.00185658 
462 2 45.3306 19.1237 19.1993 0.037874 -0.0477031 0.0154051 
461 2 43.0694 19.779 20.67 -0.0131913 0.0252617 0.0801608 
457 2 39.0535 16.0698 20.5267 0.0725938 -0.0506834 0.0380794 
500 2 56.7225 29.3136 24.2017 0.0384727 -0.0224398 -0.031937 
537 2 37.5584 16.8964 27.0586 -0.0258837 0.0119308 0.00176483 
525 1 36.6922 17.4717 26.6626 0.00291449 0.000471403 -0.00327842 
522 1 36.0162 16.5859 25.8139 -0.0151996 0.0209878 0.0166145 
534 2 36.5112 15.6465 25.414 -0.0849525 0.00259475 0.0580927 
538 2 36.7619 18.3978 29.1391 -0.000899257 0.0598873 0.0385933 
499 2 58.7539 27.9364 24.7665 0.00329779 -0.00820523 -0.0271978 
484 1 59.7245 27.4623 26.5831 -0.0127886 -0.0225261 -0.000563184 
497 2 58.3814 29.519 33.3672 0.0194281 -0.0157183 -0.0430281 
494 2 59.4894 27.8643 32.4178 0.0465168 -0.0201785 0.0125049 
470 1 59.2919 28.9983 28.3615 -0.0146459 0.00880278 -0.0101306 
469 1 59.3285 29.3469 29.7005 0.00333529 0.00956004 0.0297478 
489 1 57.8154 33.1097 30.5534 0.0174893 0.00576989 0.00844037 
487 1 58.7507 28.189 26.0462 0.0204277 -0.00533449 -0.0122661 
478 1 58.0206 29.3234 26.1685 -0.0200759 0.0129756 0.018278 
472 1 58.4045 29.6366 27.481 0.0178243 -0.00408515 -0.000116254 
502 2 57.1054 34.3488 28.0626 0.0602825 0.00487919 0.100432 
490 1 57.7313 33.5013 27.9731 -0.0115584 -0.00544324 -0.0111254 
503 2 56.0325 31.6672 25.3164 0.0586919 -0.0463792 -0.0386813 
492 1 58.1131 32.6583 26.736 0.013501 -0.00227206 0.0243388 
474 1 57.6658 30.6627 28.0977 -0.00763828 -0.00135701 0.0248483 
473 1 58.3927 31.2975 28.963 -0.0140251 -0.000831701 -0.00830025 
479 1 57.8425 32.5657 29.1863 -0.0272032 -0.0106786 -0.0218328 
488 1 56.9989 29.6731 25.139 0.0112377 -0.0224552 0.0176861 
480 1 57.4005 31.4522 26.6395 0.000736961 -0.028424 -0.00150421 
471 1 58.759 30.5672 29.9628 -0.00662369 -0.00328736 -0.0100794 
491 1 56.5908 30.8615 25.4803 -0.00853827 -0.0281183 0.0175063 
504 2 58.2209 32.7152 25.5661 0.0387649 -0.0430849 0.00574505 
482 1 59.1475 28.6161 31.6532 -0.00792273 0.0184126 0.00463805 
498 2 58.9248 32.6293 32.4322 0.00627079 -0.0408116 0.0741753 
477 1 58.7173 30.7715 31.337 -0.0008728 0.0045904 0.00478761 
501 2 58.063 34.3164 30.571 0.0879254 0.0134095 0.0492621 
485 1 58.791 29.6926 32.3738 0.00437138 0.0132658 0.0131499 
486 1 58.2939 32.1784 31.5833 -0.0163453 -0.0101381 -0.00140343 
526 1 36.0396 18.8239 28.7619 0.0102187 5.99858e-05 0.0190896 
496 2 59.9484 26.3054 26.5065 0.0308584 0.0301753 -0.0412441 
164 1 73.5387 -5.79716 23.3252 -0.0148753 -0.00691907 0.0256268 
176 2 74.3915 -5.72701 22.6036 0.0065247 -0.0701259 -0.118448 
156 1 71.7227 -5.21808 24.1952 -0.0032833 -0.00663759 -0.00561466 
179 2 72.5473 -4.03599 22.5748 -0.0273878 -0.0566881 0.13505 
180 2 70.3206 -3.38586 23.6106 0.0019204 -0.0219162 0.00543973 
168 1 70.5704 -4.35033 24.2743 0.0214958 -0.00725947 0.00964604 
167 1 72.6084 -4.75167 23.3399 0.00156403 0.021224 0.0192237 
151 1 72.1216 -9.85943 27.7015 0.0208508 -0.0378206 -0.0226198 
161 1 69.6999 -9.43781 28.6536 0.0413018 -0.0145054 -0.0261489 
147 1 70.8728 -7.89043 26.9878 -0.00819854 0.0127029 -0.0124359 
153 1 70.1545 -8.28794 27.841 -0.00527849 -0.00599428 -0.00458549 
150 1 71.8523 -6.3539 25.1492 -0.00339837 0.00758239 0.00773522 
149 1 70.9839 -6.42474 26.3284 0.0199242 0.0302209 -0.0210243 
174 2 68.6294 -7.67477 28.5626 -0.0596888 -0.0680138 0.0182333 
162 1 69.2832 -7.00752 28.3014 0.0222773 -0.0171091 0.00865112 
158 1 70.6715 -10.3062 28.1743 -0.0281188 -0.0204679 -0.00988417 
145 1 71.8969 -8.77773 26.793 0.00518414 -0.00137309 0.00398628 
148 1 72.8596 -7.41225 24.9471 -0.00019423 0.00684239 -0.0314742 
154 1 73.6128 -7.05924 23.7994 -0.00485233 0.0188149 -0.00879184 
163 1 74.8557 -7.88969 23.6266 0.0106257 -0.00181755 -0.0231931 
175 2 75.6832 -7.02215 23.4976 -0.0755661 -0.0397263 -0.045079 
146 1 73.0047 -8.67097 25.7018 0.026119 0.013811 0.0211344 
152 1 74.0624 -9.50864 25.3708 -0.0176347 0.0168814 -0.00513939 
160 1 74.9121 -8.97827 24.5185 0.00284101 -0.00602246 -0.00371707 
172 2 75.844 -9.34815 24.6171 -0.0215322 0.0979112 0.0646447 
159 1 74.4772 -10.2969 26.5447 -0.0343677 0.0190318 -0.0101687 
157 1 73.5023 -10.4344 27.5963 -0.00943809 -0.0241044 -0.00701596 
171 2 75.5841 -10.4048 26.434 0.0496563 0.000163397 -0.0538778 
169 2 73.9188 -10.1573 28.6478 0.0076109 -0.0966231 0.0867724 
178 2 68.7111 -4.3967 24.8131 -0.0368364 0.0647574 -0.0161569 
166 1 69.5792 -4.90588 25.1023 -0.0171893 -0.0217833 -0.00212962 
177 2 67.7801 -5.75979 27.0122 -0.0191597 -0.0761273 -0.126672 
155 1 69.7732 -5.81947 26.1997 -0.00197268 -0.00882429 0.00181379 
165 1 68.8861 -5.98883 27.4182 -0.00829211 -0.00816777 0.0245973 
173 2 68.9668 -9.57345 29.3808 0.0591432 -0.0632597 0.0381358 
170 2 70.1849 -11.2064 28.6878 -0.0349629 -0.100844 0.0736889 
427 2 67.2366 17.9498 -5.70785 -0.0508786 -0.0476992 0.0284418 
428 2 69.3945 18.1129 -5.93038 0.00806184 -0.0162808 0.0466583 
424 2 65.3376 19.8459 -5.7749 -0.00234553 0.0518525 -0.0284989 
410 1 65.9191 24.585 -8.7033 -0.0178931 0.00522724 -0.00278035 
423 2 64.1428 21.3714 -6.28646 -0.00854221 0.053457 0.00114566 
403 1 65.8633 23.1393 -8.60354 0.00468612 0.00953387 0.0583311 
411 1 64.9399 21.8154 -7.0769 -0.000851973 0.0112444 -0.011624 
409 1 64.9658 23.0455 -7.46917 -0.0101771 -0.0165038 0.00778753 
421 2 64.3732 23.9097 -7.07891 -0.000721146 -0.0272859 0.0387288 
404 1 65.9352 20.7662 -7.33166 -0.0048979 0.0368816 -0.0013997 
412 1 65.9508 19.5447 -6.57732 0.00240542 0.0362442 0.0249583 
415 1 67.1654 18.9967 -6.08756 0.0228699 0.0460714 0.026804 
405 1 68.498 24.128 -9.46741 0.0222181 0.0349861 -0.00542566 
401 1 69.2301 22.0916 -9.00363 -0.00690892 0.0183954 0.0185052 
420 1 70.9151 20.0728 -9.84883 0.0117202 -0.00933155 0.00460192 
418 1 71.3877 21.4661 -9.68546 -0.0131535 -0.01405 -0.0163397 
407 1 70.5278 22.5996 -9.40097 -0.0046887 -0.0182498 0.00619449 