ITEM: TIMESTEP
40000
ITEM: NUMBER OF ATOMS
576
ITEM: BOX BOUNDS pp pp pp
-1.2000000000000000e+01 8.4000000000000000e+01
-1.2000000000000000e+01 3.6000000000000000e+01
-1.2000000000000000e+01 3.6000000000000000e+01
ITEM: ATOMS id type x y z vx vy vz 
352 2 -11.7297 9.5503 19.2434 -0.00879229 -0.00512122 0.0536775 
356 2 -7.20373 10.635 19.7149 -0.00287769 -0.0122871 -0.0974151 
355 2 -8.95438 9.41548 20.163 0.00872468 0.00851295 0.0602525 
343 1 -9.63405 10.2925 20.0943 -0.0184231 -0.0107667 -0.0125373 
340 1 -10.9548 10.2264 19.4621 -0.0233725 -0.0013016 0.00773595 
334 1 -8.93279 11.5846 19.7037 -0.0141876 -0.0225099 0.00329634 
332 1 -11.2832 11.3372 18.6608 0.00344676 -0.0212215 0.0105211 
344 1 -7.5183 11.7332 19.7621 -0.00833151 0.000139383 0.00290079 
339 1 -11.4258 10.9515 17.1793 0.00518882 -0.015201 -0.0266263 
351 2 -11.5643 10.1598 16.4203 -0.0538374 0.0756046 0.023014 
333 1 -11.9459 15.7833 18.2649 -0.0280064 -0.0133169 -0.00660992 
359 2 -6.15388 13.1651 20.9123 0.0471458 0.0372279 -0.0472675 
360 2 -6.40734 15.8377 21.1694 -0.0572568 -0.0124873 0.0723222 
354 2 -11.8841 16.3752 20.3038 -0.00715576 0.0235587 -0.0177673 
357 2 -9.7783 18.4303 19.6571 0.000440085 -0.0337341 0.0404135 
328 1 -9.50338 12.8559 19.4309 -0.00702724 -0.0166851 -0.00137167 
330 1 -8.9253 14.1302 19.9352 -0.00268755 -0.00208427 -0.00883993 
345 1 -10.2289 17.456 19.3981 -0.0393294 -0.0252131 -0.0119884 
326 1 -10.9304 12.6929 19.0639 0.00955094 0.00695099 0.00455222 
329 1 -9.82796 15.0676 19.252 0.0334561 0.0157839 0.00413894 
325 1 -11.3643 13.5628 18.0511 0.00555332 -0.0266955 -0.0137115 
327 1 -10.7835 14.8507 18.2909 -0.0180024 0.00142363 -0.00618367 
335 1 -9.29386 16.3485 19.5605 -0.0187088 -0.0123222 -3.81754e-05 
342 1 -11.6024 16.8288 19.3216 -0.0238874 -0.000512069 0.00218537 
346 1 -7.87833 16.4068 20.0356 -0.0491452 -0.00100658 0.0269951 
347 1 -7.0672 12.7509 20.4136 0.000374551 -0.0144397 -0.025316 
336 1 -7.78436 13.9688 20.6507 -0.0101236 -0.0103191 0.0138464 
358 2 -7.85141 17.4656 20.0077 0.011778 -0.0785644 -0.0601223 
348 1 -7.47389 15.3896 20.8167 -0.0466108 0.0189545 -0.00433364 
19 1 33.2751 -11.9363 10.4297 -0.0167612 -0.0149828 0.00684816 
28 2 31.4981 -11.6102 8.67021 -0.0185246 0.0350279 0.0179597 
100 2 32.2185 -10.6755 29.207 0.0600847 0.0699727 0.0374747 
99 2 34.0974 -10.0445 26.0848 0.0509084 0.0277595 0.0623677 
85 1 35.8896 -10.7071 26.4327 0.0406817 -0.0011801 0.00578917 
87 1 34.492 -10.7946 26.4824 -0.00535691 0.0394585 -0.0025834 
88 1 32.5758 -11.5302 28.4819 -0.00270389 0.0536604 0.00655474 
80 1 33.7807 -11.6513 27.4475 -0.00388138 0.018086 0.0268957 
323 2 20.745 20.3581 -5.81179 0.0599378 -0.0123678 -0.0534357 
311 1 21.713 21.0634 -6.28002 0.00432452 -0.010904 0.0110434 
300 1 22.8663 21.5876 -7.11409 -0.0286156 -0.0242152 0.0324156 
324 2 21.3089 22.8339 -8.08256 -0.0186517 0.0777919 0.1211 
312 1 22.2881 22.4604 -8.29134 -0.0298479 -0.0121819 0.00790385 
322 2 22.9127 23.263 -10.1714 -0.00703756 -0.0758423 -0.025058 
310 1 23.0259 23.3278 -9.17538 0.0129813 -0.0185342 -0.0228506 
299 1 24.3983 23.5914 -8.64018 0.00678393 -0.000819884 -0.025401 
309 1 25.2974 24.7925 -9.18422 -0.0190372 -0.0104613 -0.000935467 
321 2 24.7529 25.3809 -9.89842 -0.123142 0.024489 -0.111144 
293 1 25.0885 22.8071 -7.71989 -0.000493746 -0.0206597 -0.00153822 
306 1 26.616 25.1759 -8.75345 -0.0183944 0.013771 -0.049219 
318 2 27.5719 25.442 -9.17805 -0.122491 -0.0536881 0.00957276 
464 2 19.4796 17.0411 1.17695 -0.0211556 0.0634313 0.0317301 
463 2 16.1176 16.7302 2.18981 0.0545087 0.00710327 -0.00653015 
452 1 19.1005 18.158 1.347 0.00990799 -0.00747674 0.0318449 
451 1 16.2942 17.637 1.60309 0.0249758 0.0326361 0.0428245 
460 2 14.2487 18.2002 1.72249 -0.0800896 0.0547054 -0.00162278 
467 2 20.9395 19.2685 2.04606 -0.0423843 -0.0106719 -0.0512438 
438 1 18.3234 20.4908 -0.126939 0.0188821 -0.00524756 0.0165839 
435 1 16.7315 22.2616 -0.951642 -0.00184329 0.0274368 -0.00708889 
437 1 18.0948 21.7343 -0.700142 0.0268045 0.0378589 0.00474456 
433 1 15.7316 21.5207 -0.135205 0.014319 -0.000936645 0.0131071 
442 1 17.6169 18.5336 1.32763 0.019971 -0.00424549 0.0276784 
448 1 15.1494 18.4942 1.30799 0.0116986 0.016984 -0.0155919 
441 1 16.6811 23.4931 -1.73755 -0.00565954 -0.0228301 0.00444578 
455 1 20.0366 19.2032 1.22283 0.0108946 0.0182744 0.0174771 
320 2 21.7864 20.0109 -4.50987 0.036065 -0.0826045 0.139109 
444 1 19.7221 20.3414 0.338846 0.000198501 0.0247929 0.0142331 
456 1 20.9517 20.996 0.171845 -0.00471154 0.00314519 -0.0241506 
454 1 20.6185 22.0263 -0.751763 0.0151777 -0.0247474 0.0182783 
468 2 21.9017 20.4832 0.351276 -0.0445209 0.00881397 0.0345557 
443 1 19.314 22.688 -0.668743 0.00288209 -0.0109157 0.00736299 
466 2 21.4331 22.6344 -1.43875 0.040537 0.027254 -0.00163228 
453 1 19.4255 23.9247 -1.45156 -0.0265438 0.0030542 0.0171817 
319 2 23.8434 19.5276 -2.75557 -0.0261737 -0.0307881 -0.0155515 
307 1 24.2 20.4557 -3.24786 0.00891558 -0.00233273 -0.00864116 
298 1 23.6219 21.0198 -4.51886 0.0196805 -0.0023509 -0.0122907 
308 1 22.387 20.774 -5.10407 0.00323707 -0.00631235 -0.00807293 
465 2 20.3696 24.1797 -1.59637 -0.0570407 -0.0532145 -0.0895389 
316 2 25.6738 20.7301 -1.6121 -0.0498626 -0.0426403 0.0341954 
304 1 25.5138 20.8101 -2.78696 0.000593182 0.0169556 -0.0383498 
296 1 26.1486 21.7928 -3.67872 0.0244183 -0.0145836 0.00264683 
303 1 27.5282 21.6772 -3.37861 0.00257962 0.00791038 0.000783889 
289 1 26.4551 22.951 -5.44171 0.00338153 0.0071391 0.0159509 
290 1 25.3532 22.3282 -4.57017 0.0232374 0.00264406 -0.0221845 
292 1 24.5724 21.6617 -5.50486 -4.05991e-05 -0.00884524 0.00509999 
295 1 27.497 23.5926 -4.75351 0.000667991 0.000731244 -0.026167 
294 1 24.1538 21.8098 -6.81438 -0.00965913 0.0200786 -0.00691749 
301 1 28.2797 22.7015 -3.9921 -0.00234157 -0.0164355 -0.0343719 
314 2 28.7664 25.5201 -5.14151 -0.0538939 0.0555806 -0.0205231 
302 1 27.8537 24.8748 -5.42059 -0.0202601 -0.0076059 0.00305554 
315 2 27.7789 20.9656 -2.62388 0.015636 -0.0487546 -8.03847e-05 
313 2 29.2584 23.0421 -3.94431 0.0175169 -0.0315348 -0.0125 
449 1 15.4604 24.4742 -1.35905 -0.0040971 -0.00495755 -0.0180444 
461 2 15.591 25.5004 -1.3758 0.0522744 -0.0569984 0.055389 
450 1 18.0385 24.0326 -1.90524 0.00276958 0.0107583 -0.00103755 
462 2 17.937 24.861 -2.47876 0.026181 -0.00300768 0.0700359 
446 1 14.3571 23.7585 -0.836734 -0.00325427 -0.0217418 -0.0177134 
458 2 13.6259 24.1103 -1.59099 0.00845969 -0.0493683 -0.0160786 
305 1 27.7612 25.2347 -6.76599 -0.0148957 -0.0022631 -0.0102117 
317 2 28.0374 26.1263 -7.00233 -0.0193774 0.0202402 -0.0542534 
291 1 26.2188 23.1127 -6.88554 0.0264668 0.00350956 -0.0398229 
297 1 26.8264 24.361 -7.43146 -0.0187565 -0.00414894 -0.0219995 
434 1 15.9946 20.1747 0.274542 -0.000474937 -0.0174612 0.00868363 
436 1 17.3149 19.5657 0.472293 0.0016604 -0.0362678 -0.0176067 
440 1 14.73 19.4666 0.391736 0.0017691 -0.0150178 -0.0229369 
445 1 13.5493 21.4787 0.4103 0.0207424 -0.00393255 0.0204117 
439 1 14.4115 22.3071 -0.352268 0.00249058 -0.0182048 -0.0327509 
447 1 13.4708 20.0869 0.00495083 -0.00221877 -0.00191853 0.00541691 
457 2 12.8809 22.2225 1.00778 0.0113165 -0.0327999 0.0521097 
459 2 12.5991 19.6136 0.383994 -0.031954 0.0264627 -0.0196227 
14 1 33.7463 34.9585 4.09811 -0.00955842 -0.0137989 0.0146293 
13 1 32.4539 33.9031 6.1675 -0.0155268 -0.00639252 -0.0126874 
26 2 33.0449 35.2738 3.36763 -0.0952114 -0.020874 -0.0538195 
7 1 33.5548 34.3241 5.31025 0.0175683 0.0148274 -0.00417817 
4 1 35.0173 35.0985 9.01644 0.0480143 -0.00277534 -0.00780078 
17 1 34.8145 35.8314 3.67125 -0.00446991 0.0242253 -0.00827978 
16 1 32.4288 35.9801 9.28704 0.010379 0.0106185 0.0134026 
25 2 32.0653 32.8037 6.5987 0.0177633 -0.112615 -0.131508 
1 1 34.5982 34.3638 6.34654 0.00710418 0.0171311 0.0331822 
15 1 31.8304 34.3731 7.40254 0.0231847 -0.0141976 -0.00929348 
27 2 30.8113 34.9287 7.4198 -0.033351 -0.0232643 -0.0141242 
3 1 35.7871 35.0079 5.94828 -0.0144739 -0.00937685 -0.00435661 
8 1 32.7942 35.184 8.04708 0.00346885 0.00904658 0.0151259 
2 1 34.3595 34.8319 7.79144 0.0229211 -0.0237858 -0.00392638 
10 1 34.6454 35.2635 10.453 0.00448543 -0.0210758 -0.00125101 
29 2 35.0248 36.0982 2.66847 0.0618377 0.101027 -0.0139136 
9 1 35.8403 35.1552 4.45516 -0.00104327 0.0138728 0.0164544 
20 1 35.9366 35.6721 11.1055 -0.0116927 0.0145162 0.0187864 
31 2 32.4312 35.5009 11.0381 0.0196367 -0.0247304 -0.014289 
108 2 33.5717 30.2451 29.6658 -0.0633149 -0.0749861 -0.0359645 
91 1 31.8245 35.2739 28.7182 0.000804508 0.0146309 -0.0105509 
96 1 34.3892 30.5046 29.1247 -0.01122 0.00754295 -0.0484056 
78 1 34.7806 32.9094 28.4857 -0.00739754 0.000534302 0.00399525 
104 2 30.5191 33.4951 28.8558 0.0259619 -0.0258636 -0.0640343 
94 1 35.8518 30.449 29.2004 -0.0116212 0.00111678 -0.0196394 
95 1 32.3361 31.4372 28.2455 -0.0205182 0.0163753 -0.0112337 
74 1 34.5811 35.0716 27.6316 0.0137895 0.0166986 -0.0208896 
92 1 31.5907 32.6579 28.5884 0.0159066 0.00892545 0.00905955 
82 1 32.3788 33.9098 28.3884 -0.0188571 0.0131816 -0.0198646 
73 1 35.9535 34.8773 27.2779 -0.000179999 0.00751728 -0.0285645 
76 1 33.8631 33.9249 28.1722 0.00578302 0.0110665 -0.0396259 
103 2 30.7629 35.2613 29.2049 -0.0295595 0.0422649 -0.0818132 
107 2 31.3814 30.8596 28.7485 -0.0364241 0.0622631 -0.0289008 
84 1 33.821 31.5757 28.4161 -0.027555 0.0123512 -0.0201528 
216 2 54.1963 -6.39409 -9.11955 -0.0653946 0.066178 0.043264 
214 2 54.7155 -4.76778 -7.18412 -0.0205408 0.0142659 0.0217713 
202 1 54.0211 -4.43929 -7.99897 0.0105069 0.0445296 -0.00702943 
204 1 53.8594 -5.31984 -9.0848 0.00457103 -0.00606511 -0.00100176 
387 2 58.6213 -11.6206 7.69684 0.00571873 -0.0400125 -0.0660599 
12 1 37.5328 -11.6924 9.043 -0.0165066 -0.0223023 -0.0239599 
184 1 51.7084 -2.89235 -11.4723 -0.0265936 0.0115878 -0.0303117 
182 1 51.4264 -1.49004 -11.5367 -0.017016 -0.0141485 -0.0149967 
181 1 51.2314 -0.915551 -10.1473 -0.0154743 0.00148906 0.0152072 
187 1 50.4161 -0.0934194 -9.63965 -0.02047 -0.0049289 -0.00527331 
195 1 49.7138 -0.00556591 -11.9272 -0.0254908 0.0125809 0.0131703 
574 2 59.9101 -9.23745 8.7435 -0.164762 -0.0678169 0.0378823 
192 1 53.1625 -4.94749 -10.2759 0.0206985 0.000779245 -0.00636775 
201 1 54.5564 -2.31436 -7.17483 -0.0259375 0.00874704 -0.0112475 
191 1 53.8013 -3.0808 -8.1247 -0.0184817 0.000162774 -0.00149222 
186 1 52.6285 -3.58905 -10.3713 -0.0218897 0.00476693 0.0151999 
185 1 53.007 -2.6325 -9.42968 -0.0267545 0.0100796 0.0129154 
197 1 51.5493 0.12327 -7.18927 -0.0306747 -0.00143464 -0.0123724 
189 1 52.5687 -0.80405 -7.78141 -0.0247957 0.0185612 -0.0159797 
183 1 52.3794 -1.44702 -8.92192 -0.0057854 -0.0156567 -0.0012863 
198 1 53.6151 -1.33595 -6.88983 -0.0224536 0.0309378 0.000789859 
390 2 54.3617 -4.82642 9.1052 0.00505523 -0.0178018 -0.0661995 
194 1 50.4908 0.116263 -7.99891 -0.0228163 -0.0105512 0.00319676 
206 2 49.4912 0.647335 -8.2883 -0.0819577 -0.0802683 0.0671517 
193 1 49.7846 0.746842 -10.6214 -0.0101943 0.0108767 -0.0224842 
205 2 49.3607 1.85535 -10.6022 -0.0607343 0.0518303 -0.0168492 
209 2 51.6951 0.459673 -6.27011 0.0115855 0.0340307 0.013378 
213 2 55.1618 -2.84154 -6.45649 -0.0494401 0.0702594 -0.065475 
210 2 53.9445 -0.791964 -6.00221 -0.0171005 0.0780897 -0.0116102 
380 1 56.1365 -9.07438 2.63466 0.0305734 0.00262939 0.00188319 
383 1 55.509 -7.8384 2.80668 0.0539568 0.0161356 0.0262704 
384 1 54.1927 -5.66369 3.95889 0.0137463 -0.00404007 -0.00213352 
372 1 54.9118 -7.14817 3.94085 0.0304047 0.00413839 0.00372682 
395 2 55.5724 -7.20981 2.05749 0.0434937 -0.00106187 -0.0264025 
392 2 56.3717 -9.57321 1.68964 -0.0168997 -0.0192659 0.0563193 
396 2 53.1608 -5.58279 4.0539 -0.056668 -0.027887 -0.0501657 
370 1 56.9452 -9.39906 3.91233 0.0229534 0.0269819 0.0143979 
366 1 55.5309 -7.59256 5.12641 0.033099 -0.00990391 0.0134171 
364 1 56.4926 -8.63537 5.10582 -0.00217206 0.0186033 -0.0158626 
379 1 57.594 -10.6839 4.15171 0.0216632 0.00158943 0.00446796 
376 1 58.3895 -11.1528 5.29642 -0.00308186 0.0200033 -0.000162734 
393 2 53.3539 -4.37402 7.40787 0.022019 0.018267 -0.0625448 
394 2 54.7681 -3.92112 4.30979 0.0248656 -0.0395862 0.0159127 
382 1 55.2683 -4.8351 4.71336 0.0192394 0.0164769 4.67835e-05 
381 1 54.397 -5.04233 7.31956 0.0280685 0.024999 0.0125744 
371 1 55.1537 -5.31615 6.06607 0.013263 0.00986643 -0.0163983 
203 1 53.0714 -5.93599 -11.3354 -0.0321954 0.00534367 0.0161025 
365 1 55.6726 -6.64735 6.21244 -0.00398862 -0.00636579 0.00884696 
368 1 58.079 -10.1757 6.38277 0.0312678 0.00373615 -0.0216038 
375 1 58.8268 -10.6273 7.559 -0.000556047 0.0275331 -0.0222132 
389 2 55.9824 -6.11805 10.7249 0.0338683 -0.00616971 0.0288196 
377 1 56.3072 -6.66697 9.86804 -0.00637382 0.0171258 -0.0058941 
361 1 57.2214 -8.24509 7.57138 0.0333569 0.00999277 -0.0107776 
369 1 56.0469 -6.26979 8.55679 0.0123456 -0.0157029 -0.00131232 
363 1 56.4693 -7.06218 7.3454 0.00931278 0.0165208 -0.0159233 
362 1 57.136 -9.14335 6.35713 -0.0095782 -0.00385002 -0.0113291 
373 1 58.2469 -10.0745 8.78945 -0.00182482 -0.00179731 -0.0142536 
367 1 57.7772 -8.70487 8.83856 -0.00628653 0.0136753 -0.0167181 
374 1 56.9096 -8.07997 9.90331 -0.0143816 -0.0321529 0.00683639 
385 2 58.4079 -10.4281 9.86783 -0.00914889 -0.050993 -0.0521165 
386 2 57.2185 -8.59596 10.7934 0.0585967 0.0149614 0.0342759 
378 1 55.0018 -5.21968 8.38903 0.0220757 0.0152053 0.00288938 
391 2 57.9349 -11.3803 3.26307 0.0102969 0.0216931 0.0190495 
23 1 37.1604 -11.9493 10.5203 0.0106121 -0.0225243 0.0247001 
573 2 59.5835 -10.3422 10.8218 0.0176649 0.0068532 -0.0262631 
215 2 53.1508 -7.02646 -11.2206 -0.126081 -0.015127 0.069839 
502 2 46.8698 -9.53399 19.3412 0.0403998 0.0368767 -0.0179044 
490 1 46.8138 -10.3535 18.8567 0.0324707 0.0188762 0.0103892 
492 1 47.5776 -11.1733 18.0312 0.0307027 -0.0185745 -0.005265 
504 2 48.7047 -10.9524 17.8078 0.0299288 -0.0339891 0.104753 
498 2 43.0088 -8.60845 17.3018 -0.0184572 0.0693632 0.0280207 
486 1 43.3199 -9.32293 18.2093 0.00346852 -0.0131764 -0.0133256 
477 1 42.6019 -10.4314 18.9257 0.00133345 0.00475718 0.0117833 
497 2 40.4002 -9.71558 18.0311 0.039437 -0.040858 0.0403008 
485 1 41.0755 -10.3849 18.8141 0.0164997 0.00980018 0.022581 
501 2 45.1833 -8.00355 18.2907 -0.00609947 0.01616 -0.0290117 
479 1 45.2523 -10.1738 18.6387 0.00151938 -0.00871535 0.0299623 
489 1 44.6108 -8.88589 18.5368 -0.00494376 0.0213018 -0.0137135 
473 1 45.0142 -11.4986 18.9943 0.0327647 0.0320345 -0.010068 
471 1 43.5564 -11.4265 19.4241 -0.00339171 0.0152164 -0.00303046 
212 2 51.8576 -6.03447 34.9953 -0.0271057 0.0733403 0.0346731 
199 1 49.9922 -3.75001 35.3588 0.0012295 0.00849388 -0.00960202 
211 2 49.5614 -4.75247 35.1217 -0.00821737 -0.0750542 -0.0925113 
208 2 48.6083 -2.05932 34.7122 0.042962 0.0545196 0.0068374 
196 1 49.6499 -2.4416 34.8294 -0.0295395 -0.0231034 0.0210606 
200 1 51.9636 -5.41179 35.7903 -0.0217111 0.0193883 0.0141512 
190 1 51.3281 -4.07164 35.8297 -0.0205189 0.0109275 0.0148466 
188 1 50.2611 -1.34112 35.6366 -0.0491306 0.0171003 -0.00702448 
207 2 49.0952 0.714985 35.5842 0.0668091 0.0455579 -0.00725769 
98 2 38.2134 -11.2643 25.7741 0.0992226 0.0605089 -0.0379638 
482 1 40.4762 -11.6022 19.3327 0.00481549 -0.00244878 -0.0199776 
494 2 39.6961 -11.4433 20.1873 0.0687548 0.0576775 -0.0468063 
97 2 36.5854 -10.0971 26.2186 -0.0134287 0.0538851 -0.0589102 
287 2 54.7088 16.6616 -8.32865 -0.0372607 -0.0336791 -0.00088448 
288 2 56.1321 14.5227 -6.37217 -0.02288 -0.0734354 -0.00941588 
275 1 54.8748 17.0889 -7.47019 -0.00694114 0.0119302 -0.0199837 
283 2 54.3884 20.8431 -8.11951 0.0912008 0.0150529 0.0214324 
272 1 54.8351 18.5473 -7.77353 -0.0136474 -0.00218368 -0.0153443 
284 2 54.8388 19.064 -8.70727 0.122967 0.00469709 0.0928043 
262 1 54.5877 19.4884 -6.46279 -0.00620756 -0.0344166 0.0254868 
271 1 54.567 20.9372 -6.90991 -0.0189425 -0.00685018 0.000547834 
535 2 40.4377 29.0625 -4.67267 -0.00642722 0.138323 0.0204537 
523 1 41.3137 28.2317 -5.09349 -0.00778084 -0.0242945 -0.00380476 
512 1 43.7894 28.7132 -4.89573 -0.00599615 -0.0124661 -0.00330213 
520 1 42.4141 29.1219 -5.52609 -0.0233081 0.00814363 0.0344175 
529 2 46.9826 29.2396 -5.67012 -0.0281571 -0.0148828 0.0399786 
531 2 44.8398 30.2928 -6.23362 0.0320512 0.0080459 0.0491774 
519 1 44.8885 29.417 -5.55757 -0.012777 0.000129846 0.0186294 
532 2 42.2629 29.9813 -6.17337 0.0120598 -0.00055963 -0.0379135 
285 2 55.9371 14.9797 -2.02833 0.0321737 0.0542747 -0.0271273 
273 1 56.6267 15.7817 -2.19347 -0.00434052 -0.00227746 0.0102781 
270 1 56.5876 16.6089 -1.0892 -0.00803459 0.0380543 0.00282887 
263 1 56.4351 16.2342 -3.62771 0.00429123 -0.00960428 -0.0142896 
261 1 56.4876 17.9963 -1.53164 -0.0152955 0.0116393 -0.011692 
257 1 56.1009 17.5456 -3.91013 -0.00481399 -0.00720194 -0.015512 
274 1 56.692 15.2496 -4.56498 0.00467989 -0.000878834 -0.0248739 
286 2 56.8387 14.1296 -4.62753 -0.0382867 -0.0868885 -0.048514 
264 1 55.7059 16.768 -6.15429 -0.00544619 0.0052164 -0.0137457 
276 1 56.1602 15.5016 -5.83794 -0.0514031 -0.0190201 0.00705733 
258 1 55.6966 17.7524 -5.18917 0.0393947 -0.00660136 0.00127243 
282 2 56.2577 16.2512 -0.050338 -0.00158895 0.0974117 -0.0326802 
525 1 45.7922 22.9031 -2.91568 -0.0160694 0.0063039 0.0161997 
537 2 46.3685 21.8445 -2.86095 0.00539569 -0.0569188 0.0113245 
538 2 43.1767 21.3366 -1.5193 -0.106364 0.0206116 -0.0220295 
259 1 55.5372 20.9153 -1.89666 0.00893496 -0.00272034 -0.00787547 
253 1 55.5707 19.7964 -2.89758 0.0101008 -0.0174904 -0.00919655 
255 1 55.9798 18.5039 -2.69955 -0.00797222 0.0167286 -0.00624988 
265 1 55.2632 22.2732 -2.43978 -0.0166509 -0.00353687 0.0181174 
260 1 54.8654 21.4048 -4.65625 -0.025645 0.00640112 0.0156376 
279 2 54.1942 23.4005 -4.03887 0.0313085 -0.0051172 -0.076133 
267 1 54.9655 22.5791 -3.81808 -0.00157324 -0.0072304 0.00893088 
254 1 55.2014 20.188 -4.17375 -0.0211645 -0.00413894 -0.00746689 
256 1 55.1599 19.1179 -5.22079 -0.0207066 -0.0131713 0.00501102 
268 1 54.6385 21.89 -6.143 -0.0049552 -0.00476353 -0.00975988 
280 2 54.6755 22.8053 -6.76887 0.0128614 0.100393 -0.0471795 
277 2 55.4881 22.8835 -1.51954 0.00477422 -0.00124575 0.0415621 
266 1 55.7881 20.2521 -0.616819 0.0105956 7.98938e-05 0.0020054 
269 1 56.2632 18.9499 -0.249901 0.0198512 0.0309968 -0.0205847 
514 1 41.2609 26.7991 -4.70184 -0.0178797 -0.00598967 0.0254518 
524 1 40.1006 25.9635 -4.66827 0.0310241 -0.00446699 0.0147516 
539 2 39.6209 24.6278 -2.76698 -0.0771004 -0.0839835 0.0140478 
540 2 41.4105 22.0211 -2.88091 -0.0034153 -0.040915 -0.0493309 
516 1 41.7335 24.2204 -3.70356 -0.0200058 -0.0206194 0.00929989 
528 1 42.1602 23.001 -2.95337 0.0121801 0.00432255 -0.0027013 
527 1 40.3628 24.9017 -3.6464 -0.00261545 -0.0254415 -0.00295205 
536 2 39.2796 26.0089 -5.411 -0.00397981 -0.0444939 0.0420305 
511 1 46.0277 27.7152 -4.33196 -0.00603633 -0.0271488 0.0141458 
517 1 46.0037 28.9741 -5.19021 -0.0100631 -0.0311261 0.0114395 
506 1 43.662 27.2771 -4.56051 0.00547909 -0.0312953 -0.00915515 
518 1 47.3724 27.195 -4.10232 -0.00674606 0.000164656 0.0042403 
505 1 45.0231 26.655 -4.39676 0.00431257 -0.0130665 3.11472e-05 
508 1 42.7536 26.2711 -4.42657 0.0174819 -0.00967448 0.00471963 
521 1 47.5901 25.8442 -3.81112 -0.00279892 -0.010525 0.00845531 
534 2 47.6306 22.8064 -2.39335 -0.100241 0.0296088 0.0693279 
513 1 46.5296 25.0013 -3.48784 0.00240295 -0.0241027 0.00642813 
522 1 47.0739 23.5824 -3.23011 0.0253182 0.00108566 -0.0107351 
510 1 42.9061 24.9453 -3.65965 -0.00769456 -0.00710002 0.0044049 
507 1 45.2677 25.2688 -4.13803 0.0107036 -0.0115383 -0.000968707 
509 1 44.1868 24.4735 -3.65173 -0.00478697 -0.0242607 0.0129762 
515 1 44.3651 23.227 -2.7771 0.0286056 -0.0224956 -0.0171188 
526 1 43.2692 22.4776 -2.17764 0.000868025 -0.0283297 -0.0124597 
530 2 48.1948 27.8708 -4.00658 0.0424522 0.0236402 0.00361325 
533 2 48.6821 25.5978 -3.70807 -0.0219974 0.0174546 0.010407 
281 2 56.6216 18.5515 0.747609 -0.0223366 -0.035735 0.0988008 
278 2 55.8036 20.762 0.320768 -0.0607405 0.0385726 0.00475545 
30 2 38.25 35.5391 3.10007 -0.00338781 0.0474465 -0.00438332 
21 1 38.519 35.515 4.95359 -0.0116591 -0.00363499 -0.010369 
34 2 40.0543 35.1469 6.76021 -0.0349748 0.117103 -0.0128923 
18 1 37.4274 35.4727 4.06932 0.0109189 0.0245257 -0.00478263 
33 2 39.7239 35.4797 4.805 0.0110772 0.0344393 -0.0745268 
6 1 36.3827 35.8117 8.40119 0.0130389 -0.015324 -0.0135014 
11 1 38.1334 35.6113 6.46174 0.00465274 0.000607782 -0.00982943 
22 1 39.1193 35.5802 7.52655 0.0159263 0.0201496 -0.0251791 
24 1 38.8535 35.5445 8.80879 0.0155671 0.00725525 0.00198615 
5 1 36.8162 35.4562 6.99701 -0.00877143 0.016368 -0.00565243 
36 2 39.6155 35.5719 9.6795 -0.0144856 -0.0241511 -0.0220634 
35 2 38.1849 35.9736 10.874 0.0311282 0.00233545 0.0496832 
388 2 58.9555 36.2067 5.69693 0.0161539 -0.0392396 -0.032214 
32 2 36.2298 34.9584 11.9539 -0.0268105 0.0263613 -0.0240595 
488 1 47.3058 33.1529 17.8843 0.00522252 -0.00787844 0.0161467 
491 1 47.9292 34.4613 17.6393 0.00476305 -0.0125923 0.00945454 
500 2 47.9053 32.2564 17.8934 0.0292238 -0.0402232 0.0640206 
503 2 49.0173 34.7304 17.2988 -0.0973003 0.0568777 0.0296482 
480 1 46.9593 35.4356 18.0011 0.01299 -0.00311956 -0.0134935 
79 1 36.4891 35.9944 26.5502 0.00143217 0.0256351 0.0165177 
475 1 41.3369 35.2545 19.4425 -0.0321097 0.0362919 0.00545384 
495 2 41.9646 32.6661 21.6562 -0.0859151 -0.00604693 0.00802431 
106 2 36.4899 29.6602 29.3772 0.0217255 0.00583427 0.0286209 
474 1 45.4989 35.3246 18.2175 -0.00101942 -0.0098322 0.00783752 
481 1 41.0726 34.3057 20.6514 0.0124036 0.0118359 -0.0214318 
493 2 40.2414 34.0213 21.1644 0.00863503 0.0114698 -0.0706577 
483 1 42.1124 33.419 21.0083 -0.0189965 -0.0103707 -0.0329561 
478 1 45.9174 32.9715 18.3575 0.0304406 -0.0295035 0.0165282 
499 2 46.4144 31.7236 19.7136 0.00914845 0.0585846 0.0123634 
469 1 42.7649 35.3125 19.3515 -0.0250693 -0.011799 -0.0109802 
472 1 44.8773 34.057 18.218 0.000312619 -0.00105009 0.00714555 
487 1 45.4812 32.2668 19.6447 0.0178683 -0.00291152 0.00919524 
484 1 44.281 32.0519 20.2992 -0.0113071 0.00204065 0.00976179 
496 2 44.1095 31.5053 21.2548 0.0785689 0.0836473 -0.067991 
470 1 43.6701 34.0805 19.1511 0.0258026 -0.00422079 0.00885667 
476 1 43.3779 33.2758 20.2768 0.0242018 -0.00126553 -0.0165246 
101 2 39.6966 34.9836 26.2412 0.0333631 -0.05035 -0.0352416 
102 2 39.6401 32.3974 27.6929 -0.037148 -0.0241306 0.0373335 
75 1 36.6544 33.8542 27.6599 0.00625451 0.0197406 -0.00560639 
93 1 37.9056 31.0996 27.7062 -0.018115 0.00199387 -0.00863261 
105 2 37.7575 30.1853 27.214 0.00526703 0.0357754 -0.0577092 
83 1 36.7809 31.4258 28.5772 -0.0498624 -0.0158706 -0.0185877 
90 1 38.6982 32.2831 27.3298 -0.0159385 -0.0209736 -0.0106974 
81 1 37.9744 33.5373 27.0076 -0.0108455 -0.0316159 0.0050037 
77 1 36.1879 32.8314 28.4769 0.0070595 0.0110834 0.0148411 
89 1 38.5735 34.8409 26.6114 0.00479713 0.0218737 0.0210335 
86 1 37.8115 35.8433 26.1392 0.0119389 -0.0171784 0.0358181 
153 1 76.277 7.04237 -9.54375 -0.00390881 -0.0382714 0.000318575 
161 1 75.4947 6.95814 -10.8723 0.0202735 -0.00275455 -0.0144065 
173 2 74.89 6.04072 -10.9174 -0.048567 -0.0205615 -0.00985256 
426 2 67.3177 11.0228 6.84203 -0.058217 0.0366006 0.000820483 
158 1 75.8397 7.71366 -12.0269 -0.00267677 0.000411721 -0.00378344 
162 1 75.8483 6.3487 -8.38515 0.0334526 -0.00293895 -0.00985819 
174 2 75.0143 5.67099 -8.04543 0.0105518 0.0739382 -0.0356221 
147 1 77.069 8.34866 -9.76154 -0.0049766 0.0146891 -0.0090052 
165 1 76.7299 6.75723 -7.27831 0.00504002 -0.0378326 -0.00621683 
155 1 77.4754 7.95149 -7.10091 -0.000290167 -0.0088887 0.00262931 
177 2 77.348 6.05862 -6.68363 0.0339618 -0.105276 -0.0370174 
570 2 62.1488 -11.3181 11.3989 0.0185904 -0.0210665 0.0340327 
149 1 77.5658 8.84819 -8.4814 0.00020687 -0.0437299 -0.021794 
543 1 63.2607 -11.8122 9.28702 0.0012388 0.0126507 0.00326879 
148 1 78.7 10.4296 -9.65715 -0.0329625 -0.00980005 0.0176729 
146 1 78.3506 9.88851 -10.7564 -0.0125502 -0.0148714 -0.00111054 
145 1 77.7087 8.68666 -11.0248 -0.00683043 0.0332678 -0.0224324 
67 2 66.4515 -4.58068 5.32069 0.0088221 -0.0372263 -0.028037 
68 2 64.1893 -5.05647 4.41202 -0.00862815 -0.00463058 -0.0821016 
150 1 78.5961 9.83936 -8.45713 0.0229918 0.00938892 0.00292453 
156 1 78.8623 10.732 -7.17784 0.00854506 -0.0191041 0.0062853 
62 2 69.2035 0.75556 -0.216896 0.0559305 0.0294664 0.0207808 
66 2 64.8096 2.96684 0.47966 0.0451573 -0.0240203 0.0259796 
166 1 78.3129 8.55083 -6.07431 -0.0042909 0.00459335 0.0271472 
178 2 78.9403 7.90526 -5.67092 0.0406973 0.0587009 -0.0478104 
168 1 78.77 9.95161 -5.93415 -0.00613622 -0.0128706 -0.0139658 
180 2 79.0972 10.429 -4.92223 0.00812743 -0.101224 -0.0330413 
560 1 64.7334 -8.94212 5.63653 -0.0140041 0.006071 0.00266269 
575 2 62.5861 -8.20564 5.50337 -0.0625647 -0.0305889 0.0473681 
563 1 63.4036 -8.86707 5.73831 0.00201979 0.0121543 -0.00166645 
572 2 65.3298 -8.3579 5.038 0.00336414 -0.0309782 -0.0577655 
571 2 66.9898 -10.7724 4.82262 0.00097878 -0.000699266 -0.0150492 
72 2 62.1305 -0.113973 5.14419 -0.00489618 -0.00825591 0.0354824 
60 1 62.7319 -0.300014 4.3567 0.0115377 -0.00847713 0.00119833 
38 1 66.662 -1.36076 2.83055 0.00713814 0.0105227 -0.00817687 
40 1 65.5518 -1.90428 3.31681 -0.00455412 0.00243718 0.00295209 
37 1 67.0145 -0.0899483 2.35711 0.0197051 0.00862904 0.00662312 
39 1 65.9796 0.172298 1.74769 0.017375 -0.00331683 0.0131901 
42 1 64.4439 -1.16656 2.91549 0.0045355 0.019956 0.00822041 
41 1 64.6694 -0.017743 2.14169 0.0390226 -0.00640088 0.00201766 
48 1 63.3301 -1.51668 3.76175 -0.00775102 -0.00514664 -0.0230122 
56 1 64.4623 -3.86703 4.1054 0.00476288 0.016038 -0.0144002 
46 1 65.5356 -3.16845 3.91086 -0.012628 0.0143638 -0.0358196 
59 1 63.2359 -3.027 4.01244 0.0367602 0.00208572 -0.00552248 
44 1 68.081 -1.91194 3.37308 0.0238203 0.0388299 0.00807802 
52 1 68.1164 -3.26022 4.09682 -0.000130485 -0.00951193 -0.0109393 
43 1 68.3259 0.0765282 1.91225 0.019693 -0.00726646 -0.00459594 
49 1 69.4428 -0.484326 1.87025 -0.0179539 0.0415728 -0.0171157 
51 1 69.3064 -1.45311 2.89573 0.00107353 0.0239251 -0.0279801 
61 2 70.0171 0.172421 1.21331 0.0803518 0.0593982 -0.0550535 
63 2 70.0732 -2.16931 3.04753 0.000471556 -0.0768244 0.00698022 
64 2 69.0258 -4.00897 4.5973 -0.0228242 0.0732097 -0.0180352 
55 1 66.8252 -3.6817 4.5999 0.0101042 0.000144822 0.000291919 
47 1 63.8913 0.924603 2.79651 0.0401434 0.00468829 0.0152629 
45 1 66.0463 1.47042 1.10273 -0.000579081 -0.00874162 0.0111989 
58 1 63.1837 1.07336 4.0002 -0.0115303 -0.00571314 0.00820269 
69 2 63.9337 3.29023 2.92908 -0.0209246 0.0151897 0.0756879 
57 1 64.1931 2.28592 2.49575 -0.0113816 0.0313837 0.0151434 
54 1 64.7558 2.1678 1.14425 0.009073 0.0151479 -0.0144447 
70 2 63.0157 2.06471 4.30959 0.0810982 0.00726111 -0.0796844 
65 2 67.0099 1.71038 -0.839862 0.0796551 0.0455208 0.056965 
53 1 67.2272 1.39562 0.139256 0.0103216 -0.0112039 -0.00058073 
50 1 68.3461 0.730969 0.563354 0.0209379 -0.00749178 0.0038153 
414 1 66.6865 11.8173 6.4508 -0.00906574 0.0117327 -0.0121996 
425 2 68.4225 9.73902 5.29912 -0.0273988 0.0911141 0.0128004 
413 1 68.2079 10.7306 4.65722 -0.0199723 0.00181166 0.0188233 
545 1 62.9385 -10.3314 9.0624 0.0235361 0.000609756 0.0108939 
410 1 69.2917 10.9474 3.80528 0.000246469 0.00214728 0.0217439 
422 2 70.0484 10.2446 3.46631 -0.0341291 -0.00839437 0.102157 
71 2 62.268 -2.99379 4.72839 0.0127634 -0.0428474 0.0251079 
558 1 61.377 -12.0288 10.9154 -0.0113601 -0.00586727 0.018673 
561 1 60.623 -10.9072 10.3196 0.012517 -0.0122986 -0.000806465 
405 1 67.231 11.8793 5.16721 0.00101243 0.0273512 0.0284951 
576 2 61.1977 -8.41566 6.66604 0.0163889 0.0211558 0.0686384 
559 1 66.6943 -10.9726 5.75025 0.0139049 -0.0202743 -0.00663961 
167 1 79.7861 11.8779 -7.03145 -0.0254076 -0.0126859 -0.00318068 
550 1 65.3824 -10.2728 6.29884 0.00832157 -0.0228833 0.00474456 
544 1 64.5841 -10.6992 7.36919 -0.00472672 -0.000886248 -0.0154245 
564 1 61.5252 -8.72254 7.69918 0.0187395 0.00387322 0.031711 
552 1 62.8566 -9.02524 7.11928 -0.00756306 0.00706455 0.00180766 
546 1 63.5339 -9.64737 7.88795 0.00348682 -0.00605436 0.00289909 
551 1 61.6173 -9.9043 9.64326 -0.00127783 8.04558e-05 -0.0222377 
562 1 60.822 -8.88399 8.8863 -0.00508442 -0.0320294 -0.00557722 
421 2 70.869 11.5551 1.86989 -0.0623306 0.113848 -0.0427218 
154 1 79.6919 11.5687 -9.81933 -0.0228686 0.0366343 -0.0125478 
130 1 69.1626 6.27576 24.3189 0.00254135 -0.000696378 -0.0084488 
144 2 67.1391 7.39489 23.9604 -0.000917633 -0.0308961 0.0769899 
142 2 69.7999 7.15608 24.059 -0.0800854 -0.0585241 0.0515548 
170 2 75.7319 6.97259 35.1369 -0.0539937 -0.0851886 -0.0681934 
136 2 65.6779 0.42336 28.6768 -0.0495229 0.0318749 0.063083 
123 1 67.8118 -0.385727 27.0045 0.00411555 -0.0092909 -0.000754739 
135 2 67.3776 -1.16461 27.5647 -0.0182048 -0.0315851 0.0227396 
121 1 68.5134 -0.79513 25.7735 -0.017765 -0.011069 0.0143296 
133 2 68.1738 -1.45885 24.9827 0.0255861 0.0435484 -0.0127298 
134 2 70.2445 -0.740132 23.7255 0.0170424 -0.0545245 -0.0595665 
128 1 65.4287 4.51066 26.1653 0.000160283 -0.0167462 0.009884 
139 2 64.4098 2.76828 28.4267 0.00883354 -0.0926057 0.0513507 
118 1 66.1351 3.67795 27.068 0.00200005 0.0177694 0.00374912 
124 1 65.9407 1.24635 28.0622 -0.00975244 0.0134554 0.0104282 
127 1 65.3284 2.5233 27.9005 0.0243516 0.0353765 0.0104276 
140 2 64.418 3.86474 26.2079 -0.0704623 -0.0261562 0.00545312 
116 1 67.3166 1.05982 27.4345 0.0171218 0.00298819 0.0309112 
110 1 68.067 2.04975 26.7941 -0.0023441 -0.00748246 0.0122249 
112 1 67.3846 3.52223 26.5959 0.0247481 -0.0116497 0.00179368 
113 1 69.3555 4.09063 25.2736 0.0078351 0.0142781 0.00848142 
114 1 67.9277 4.38176 25.6383 0.00232356 -0.0223536 0.00364156 
120 1 67.3094 5.57576 25.1768 0.017902 0.0144445 0.0221622 
131 1 65.8952 5.51658 25.221 -0.0250134 -0.0249512 0.0240215 
122 1 70.0295 0.254559 24.0673 -0.0238579 -0.0196499 -0.000807246 
115 1 69.348 0.360367 25.3586 0.00189259 -0.00891067 0.0435325 
111 1 70.0304 2.78021 25.3815 0.0204102 -0.0030032 -0.0143845 
109 1 69.1835 1.73559 25.9759 0.00768829 0.0130535 0.00214314 