ITEM: TIMESTEP
830000
ITEM: NUMBER OF ATOMS
576
ITEM: BOX BOUNDS pp pp pp
-1.2000000000000000e+01 8.4000000000000000e+01
-1.2000000000000000e+01 3.6000000000000000e+01
-1.2000000000000000e+01 3.6000000000000000e+01
ITEM: ATOMS id type x y z vx vy vz 
359 2 11.7873 -2.29997 1.2135 -0.0615664 0.00807756 0.0457601 
242 2 3.14439 4.18245 11.2094 0.0132913 0.00391019 0.018791 
230 1 3.92727 4.15 11.8824 -0.00588614 0.0290106 -0.00232494 
246 2 8.05902 5.09151 10.1298 0.0585223 0.0968809 0.0121549 
233 1 5.07558 4.23417 11.2512 0.0141821 0.00917429 0.011112 
225 1 6.39198 5.06261 11.7933 -0.0225172 -0.0127231 0.0024738 
245 2 5.2164 4.08727 10.1522 -0.0054508 -0.0350734 0.00316728 
234 1 7.63363 5.44079 10.945 -0.0221739 0.0140204 -0.00874298 
457 2 -10.65 10.8754 9.93444 0.0402253 -0.0309995 -0.0807006 
445 1 -10.9174 11.4964 10.7149 0.0163641 0.00456869 0.00710073 
356 2 11.6162 -0.185634 2.89942 0.00912096 -0.0198083 -0.0627029 
458 2 -8.36942 12.0369 10.6736 -0.0470454 0.0493404 -0.100341 
249 2 7.969 7.8637 11.2119 -0.0365837 -0.014684 0.0598112 
237 1 8.22512 6.81293 11.4243 -0.00544139 0.0134231 -0.0321416 
380 1 -11.59 -8.15074 15.2109 0.016665 -0.00234827 0.0299346 
392 2 -10.6323 -8.21528 14.7004 -0.0846661 -0.042598 0.0200971 
370 1 -11.903 -6.68312 15.254 0.0114659 -0.0126628 0.0250916 
276 1 -4.96887 -11.3902 30.8611 0.0255302 0.0178445 0.02341 
376 1 -11.0795 -5.51915 14.832 0.00272522 0.0262657 -2.02447e-05 
379 1 -10.0234 -5.04431 15.6209 0.00326154 0.0057435 0.011537 
388 2 -11.2094 -2.53104 14.513 0.0558583 0.0498117 -0.0222121 
391 2 -8.85475 -5.03797 15.7938 -0.13618 -0.0285775 0.0329258 
218 1 4.58011 6.08897 14.9451 -0.0129358 0.0230125 0.00764041 
232 1 3.9476 5.64881 17.5617 -0.00909456 0.0188043 -0.00909375 
224 1 4.12245 5.13059 16.1937 0.0182761 3.57814e-05 0.0281151 
217 1 4.69044 5.60216 13.6676 -0.00397605 -0.00759866 0.0180335 
244 2 3.16522 5.21956 18.3309 0.0673885 -0.0239565 -0.0244197 
243 2 3.59184 3.35706 16.4586 0.0938251 -0.0308526 -0.0642424 
231 1 4.03612 3.86793 15.6921 0.00633963 -0.00390478 -0.0105973 
229 1 4.12355 3.22378 14.3494 -0.0162882 -0.00463267 0.0147178 
223 1 3.87448 4.20357 13.4159 -0.0180805 -0.000574574 0.0163525 
241 2 4.16443 2.05198 14.5734 0.00472386 0.0771093 0.0157807 
219 1 5.96525 5.87411 13.0404 0.0022927 -0.00589309 -0.00205831 
288 2 -4.59182 -10.4007 30.5351 -0.0666239 0.0409781 0.0265913 
286 2 -6.55625 -10.7697 31.9971 -0.031108 -0.0114473 0.0539185 
220 1 5.31786 7.2194 15.3886 0.00539001 -0.00753393 0.0153101 
226 1 5.22086 7.43681 16.8931 -0.00893849 -0.0056513 0.0100165 
235 1 4.91869 6.61009 17.9913 0.0209606 0.0105401 0.0200504 
247 2 4.77408 6.88234 19.1604 0.0505547 -0.0716739 0.057579 
239 1 6.51029 8.01466 17.3364 0.00406718 -0.0124927 -0.0246339 
222 1 6.57038 7.38466 14.5193 -0.00104045 -0.0111398 0.0131551 
227 1 8.3816 6.64079 12.9103 0.0227247 0.00014855 0.0112767 
221 1 6.97179 6.69989 13.5821 -0.0137323 0.01796 -0.0015876 
236 1 7.50761 8.81286 16.5353 0.0087814 0.0255305 -0.00109485 
251 2 7.95539 9.76974 16.5517 -0.0287616 0.111217 -0.118903 
228 1 7.67914 8.17535 15.2127 0.0219812 0.00179058 -0.00545011 
240 1 8.84828 8.44773 14.5784 -0.0185874 0.00339475 -0.013618 
238 1 9.28632 7.71729 13.446 0.00702778 0.00969297 -0.00864028 
357 2 10.042 8.16033 12.9993 0.0338997 0.0123715 -0.0264334 
252 2 9.62136 9.26521 15.0409 0.00190483 0.0466296 0.0578995 
574 2 -8.19485 3.40566 19.6469 -0.0359001 0.00721833 0.0156654 
352 2 -8.43782 2.88541 19.3563 0.00197264 0.0835289 -0.0301256 
275 1 -2.83133 -11.6185 29.2176 0.0124938 -0.00258289 -0.0116909 
394 2 5.69228 -2.37045 28.173 -0.0333998 -0.0112497 -0.076771 
144 2 5.80447 -2.28947 28.9025 0.112242 0.118463 0.0648701 
99 2 -2.84416 6.43536 29.8593 -0.0617156 -0.0713628 0.0822564 
100 2 -3.38934 6.68558 25.316 0.00218189 0.0239732 -0.0885099 
80 1 -3.3697 6.48237 26.2733 0.0198191 -0.0331143 -0.0211429 
87 1 -3.10263 6.60491 27.4056 0.0090453 0.0177099 -0.0334114 
85 1 -2.54237 6.78091 28.6793 -0.0340916 0.0065113 0.0149919 
274 1 -6.0531 -11.6701 31.8102 0.0232058 0.0159415 -0.0011147 
368 1 -11.7201 -4.31625 14.2412 -0.0061871 -0.00720853 0.003788 
395 2 -12.4913 -10.4202 14.5455 -0.104108 -0.0679607 -0.0145717 
173 2 -9.51065 -11.896 12.2064 -0.0666665 0.00768049 0.0463539 
64 2 -11.6663 24.3726 -10.6771 -0.0107956 0.0082374 0.101876 
433 1 -11.0483 13.7431 11.5727 0.00337643 -0.0305325 -0.0152488 
162 1 -10.1722 34.089 10.4187 0.000445139 0.00150214 0.00609489 
446 1 -8.94097 12.6461 11.1057 0.0102944 0.00969941 -0.0182123 
464 2 -12.0777 23.6102 -10.9291 -0.127811 -0.126079 0.0600681 
439 1 -10.306 12.6209 11.0321 0.00396426 -0.0107385 0.0118333 
483 1 -10.8044 31.6693 6.16341 0.00500718 0.0211416 -0.00782351 
202 1 10.1163 23.8124 11.0615 -0.0214425 0.00354086 0.0136555 
153 1 -10.7535 34.358 11.8118 -0.00322413 0.00816729 0.0162987 
462 2 -8.55254 19.4087 11.2696 -0.0591208 0.0160988 -0.0141592 
165 1 -10.5191 32.7244 9.99789 -0.0202823 -0.0223886 0.0154807 
197 1 4.8154 23.9471 10.8883 0.00427187 -0.0050351 0.00753578 
209 2 4.35145 23.278 10.0031 0.0297449 -0.0111937 -0.0158892 
201 1 8.14366 24.7848 9.89224 -0.0187923 0.00161133 -0.021952 
213 2 8.8332 24.6358 9.09011 -0.0645733 -0.00701684 0.0331691 
191 1 8.93677 23.8158 10.9164 -0.0291933 -2.56716e-05 0.000835172 
174 2 -9.24805 34.7032 10.13 -0.0612182 -0.00282372 -0.0173293 
198 1 6.77936 25.2243 9.55209 0.0140247 -0.0477766 -0.00973427 
155 1 -12.0761 32.5199 10.1021 -0.0211967 0.0145674 -0.0150557 
189 1 6.25409 24.6112 10.7802 -0.00360693 -0.00496939 -0.00338156 
133 2 6.13893 24.7843 8.79663 -0.0624049 -0.00708801 0.0430996 
493 2 -10.4202 30.5821 6.39612 0.00162101 -0.00456215 -0.0456247 
204 1 11.5627 23.9023 11.3462 0.0164874 -0.00557657 -0.00579706 
570 2 12.0867 30.8747 -10.0604 0.0162055 0.0715777 0.0268348 
573 2 11.3693 31.6974 -6.26267 -0.0331917 -0.0681547 -0.0241999 
453 1 -9.06467 17.7989 13.2055 -0.00398322 0.00494944 -0.022323 
443 1 -9.57432 17.5102 14.4382 0.00605481 -0.00958172 -0.0202539 
465 2 -8.8601 17.896 15.2504 -0.139201 -0.072762 0.0199927 
435 1 -10.4475 14.6286 12.6707 0.0125194 -0.016143 0.0464844 
454 1 -10.8062 16.6741 14.2364 -0.000795953 0.00574603 0.0117841 
437 1 -11.0052 15.5856 13.4704 -0.00130696 -0.0242958 -0.0163391 
456 1 -11.9983 16.6273 15.0871 -0.0043319 0.0168015 -0.00577718 
258 1 -4.54838 34.554 29.7323 -0.0160512 -0.0425899 0.00119854 
450 1 -8.61655 18.3021 12.02 0.00037759 0.00134532 -0.0194542 
441 1 -8.99085 14.0312 13.0667 0.0111845 -0.00767765 0.0177299 
203 1 10.4464 24.3619 13.5206 0.00401252 0.0473088 0.0044748 
192 1 11.7237 24.1142 12.8763 0.0203668 0.0168462 0.0032888 
449 1 -8.60091 13.2554 12.2713 0.00284027 0.0124557 0.0140528 
575 2 -8.37538 35.7262 32.3366 0.150546 -0.12033 -0.018518 
188 1 6.33255 26.0698 15.1729 0.0124792 -0.0340996 0.0382237 
195 1 4.94927 25.5247 15.5809 0.00632489 0.0225189 -0.0252677 
207 2 3.82843 26.0288 15.6281 -0.00227485 -0.0845923 0.0343298 
193 1 4.63607 24.2836 14.8969 0.00288348 0.0202181 0.0123465 
205 2 4.33629 23.3214 15.3366 -0.126302 0.0480925 0.0559249 
181 1 6.20064 24.971 13.1502 0.00202085 -0.0433486 -0.010828 
187 1 4.96433 24.3897 13.2144 0.0395048 -0.0106407 0.00862546 
211 2 9.00841 26.2362 17.2691 -0.0807358 0.00486584 0.0812969 
200 1 10.3786 24.528 15.1196 -0.00764039 -0.00472059 0.0159439 
215 2 11.0967 23.7102 15.2417 -0.00689239 0.015151 0.0400011 
196 1 7.23351 26.8641 16.1584 -0.00255207 0.00995057 0.0199432 
208 2 6.88196 27.8982 16.6252 -0.0260543 -0.0698265 0.0440733 
199 1 8.27495 26.1976 16.4017 0.00760271 0.00284763 0.0105095 
190 1 9.07036 24.9201 15.6968 0.0157476 -0.00922185 -0.0027149 
182 1 6.80021 24.9534 14.4296 0.0167493 0.00838468 -0.000143895 
184 1 8.40331 24.8254 14.4464 -0.000712204 0.000163163 -0.0157965 
186 1 8.89794 24.3268 13.3584 0.0196249 0.00685114 0.00149091 
185 1 8.14401 24.1488 12.2327 -0.0109415 0.0134677 -0.0212575 
151 1 -11.4709 35.1508 14.2895 -0.026946 0.00675325 -0.0284562 
71 2 6.92105 22.1312 28.7939 -0.0663936 0.0134553 -0.0497364 
161 1 -10.0517 35.3644 12.6815 -0.0282448 0.00142667 0.0113587 
183 1 7.01609 24.8389 12.1295 0.0153072 0.0131879 0.0110199 
158 1 -10.0574 35.165 14.1348 -0.0234442 0.00639539 -0.00804285 
170 2 -9.19341 35.321 14.8486 0.0308384 -0.0184332 -0.0159325 
194 1 4.24324 23.7156 12.1346 0.00366245 -0.0198874 0.00790513 
157 1 -11.8137 35.8809 15.5009 0.00906567 0.00912374 -0.0213239 
281 2 -8.78053 30.5882 27.9533 0.0666226 -0.000683166 0.0108558 
277 2 -6.83353 29.4974 27.0663 0.0170708 -0.029551 0.0525772 
171 2 -11.1825 36.1975 16.3928 -0.0530054 0.0812653 0.0844225 
269 1 -8.30818 32.1563 29.6377 -0.00384245 0.0129359 0.00224183 
255 1 -6.46132 33.0768 30.0737 0.00717093 0.0160049 -0.019024 
266 1 -8.35589 31.2847 28.6517 -0.00179938 -0.00976503 0.00668976 
259 1 -6.96664 31.4045 28.1758 0.00178616 0.00215309 -0.0279421 
272 1 -2.1565 35.506 28.1755 0.00155634 -0.0147835 -0.0401342 
262 1 -2.94619 34.2361 27.9823 0.00989055 -0.0102456 -0.0261775 
279 2 -3.83619 29.4924 27.069 -0.00387796 -0.0461479 0.0860732 
271 1 -2.34042 33.3801 27.0392 -0.00704081 0.0073705 0.0146698 
265 1 -6.04947 30.0498 27.6078 -0.0129253 0.00458264 0.00149599 
253 1 -6.15329 32.5051 28.8008 -0.00527705 -0.00248499 0.00324732 
267 1 -4.53782 30.321 27.4489 -0.0122131 -0.015864 -0.0132561 
260 1 -3.90932 31.5961 27.7313 -0.00876257 0.0150361 -0.0156233 
280 2 -1.66543 31.2324 27.3815 -0.0526174 0.00147586 -0.00339785 
254 1 -4.62409 32.5559 28.4468 -0.0120344 -0.0266489 0.00498549 
256 1 -3.98686 33.4694 28.9914 -0.0249651 0.0308866 0.00379598 
268 1 -2.46213 31.8866 27.3817 0.0190254 0.0373361 -0.00258696 
468 2 -11.7904 17.4709 15.7707 -0.0646674 0.0102783 0.0940587 
263 1 -6.3022 34.9674 31.6794 0.00488282 -0.0242525 -0.00514181 
257 1 -5.64422 34.2466 30.5953 -0.0170115 0.011044 0.0069038 
285 2 -9.67829 33.297 32.2364 0.0622624 -0.049414 0.0707312 
273 1 -7.68955 34.8497 32.1102 -0.00501936 -0.0225696 -0.000716308 
270 1 -8.72744 33.8333 31.7255 0.0122511 0.00125545 0.0118984 
261 1 -7.79747 33.0612 30.6198 -0.0227019 0.017107 0.0264671 
504 2 7.48266 21.6393 28.5041 -0.0429549 -0.023841 0.0416794 
461 2 -8.4626 14.2753 14.0468 -0.0880052 0.082817 0.0427235 
206 2 4.13173 22.6577 12.3271 -0.00628777 0.0925803 0.0319937 
264 1 -3.88261 35.8306 30.3224 0.00800113 0.00911007 -0.0138358 
408 1 24.9227 -5.49932 8.51265 0.00758571 -0.00535486 -0.00507502 
539 2 21.7847 -11.6875 -6.65875 0.055086 -0.0586421 0.00386864 
89 1 22.9687 5.03044 -8.19371 -0.013643 -0.0194818 -0.0108821 
101 2 22.3175 4.00422 -8.34038 -0.0345348 0.0142956 -0.0198076 
86 1 24.145 4.96095 -7.78596 0.00868793 0.00234377 -0.0122 
94 1 22.9982 9.83497 -11.3529 0.00815768 -0.00714825 0.0158334 
96 1 23.8453 10.7402 -11.2438 0.0414283 0.0259369 0.0279188 
83 1 22.1774 9.03923 -10.5348 0.00344243 0.0195561 -0.00693332 
102 2 20.9086 7.68034 -11.3782 0.110007 -0.0210664 -0.0462819 
93 1 21.342 7.99298 -10.5037 -0.00347583 -0.0107423 -0.0042576 
90 1 21.6867 6.89838 -9.56942 0.00134346 0.00713605 -0.00799776 
77 1 23.2231 8.81818 -9.16955 -0.000613921 0.00429547 -0.0128723 
81 1 22.8093 6.41832 -8.74717 -0.00633875 -0.00270095 0.0293684 
84 1 24.4316 10.8612 -9.90034 0.000534554 -0.00313381 0.00884111 
78 1 23.8643 10.0347 -8.93502 -0.0136479 -0.00185872 -0.00364044 
73 1 24.8009 7.33748 -7.66192 -0.0108245 -0.00574577 0.00946907 
75 1 23.6251 7.68786 -8.31751 -0.0197169 -0.0221586 -0.0025484 
74 1 25.316 8.5895 -7.2801 -0.00109184 -0.00154765 -0.00231559 
76 1 24.9751 9.75533 -7.79029 -0.0211695 -0.0146798 -0.025142 
79 1 25.201 5.86592 -7.56687 -0.00796539 0.0170537 -0.00802427 
82 1 25.2669 11.152 -7.73855 0.00445874 -0.010431 0.00416825 
355 2 25.9894 8.4655 -6.57446 -0.072617 -0.062179 0.116588 
417 1 21.7864 -7.3916 11.9121 0.0365791 0.012539 -0.0103206 
430 2 25.5227 -3.9445 7.0496 -0.00589148 0.0450774 0.0881682 
360 2 13.7048 -2.32118 0.25544 0.0256603 0.0104406 -0.0147719 
97 2 26.2464 5.72754 -7.17272 0.0857891 -0.034831 -0.0194745 
216 2 17.1793 -6.38969 0.523993 0.00154438 0.0122981 0.0203863 
354 2 17.7601 -7.53637 2.60591 0.143717 -0.0576643 -0.0326894 
342 1 17.1796 -6.69368 2.53588 -0.00182097 -0.00113136 -0.0170742 
345 1 16.7473 -5.89494 1.40485 0.0223159 0.0303402 0.023043 
353 2 17.9774 -7.60537 4.97778 -0.0774264 0.0286646 -0.0170217 
341 1 16.9835 -7.1467 5.05281 0.0195299 -0.000984425 0.0287206 
346 1 15.2769 -3.86346 0.451796 0.000687106 0.0248409 -0.0202659 
344 1 12.1551 -1.24263 3.16273 0.00893189 -0.0173418 -0.00228285 
326 1 14.0734 -3.69265 5.36125 -0.0101711 -0.0110828 -0.000938557 
328 1 13.6611 -3.04364 4.19687 -0.00105821 -0.0310951 -0.0281902 
325 1 15.0324 -4.98304 5.19132 -0.00845835 -0.019083 0.0155971 
334 1 12.9793 -1.71865 4.24549 0.00582296 -0.0123944 -0.00568013 
330 1 14.1933 -3.62293 2.91179 -0.023645 -0.0167994 -0.0119675 
327 1 15.4442 -5.48081 3.93174 0.0217504 -0.0208184 0.0169559 
347 1 12.1917 -2.19463 2.10705 0.0168249 -0.00736991 0.0204197 
329 1 14.9198 -4.77938 2.69392 -0.00135191 0.00767805 0.00564681 
336 1 13.3137 -3.20343 1.82473 0.0155453 0.00835872 -0.00165043 
333 1 16.6639 -6.3318 3.89849 0.00603563 0.0132642 -0.00856094 
335 1 15.7897 -4.89332 1.45663 -0.0188207 0.0134655 0.0446924 
348 1 14.2441 -3.16706 0.61787 0.00562505 0.012154 -0.0158998 
343 1 12.7962 -0.949245 5.5321 -0.0160776 -0.0103718 0.0123792 
358 2 15.6658 -3.27584 -0.680107 0.0353723 0.0650264 -0.0603892 
136 2 26.3471 -5.55505 7.1186 0.0395639 -0.0279029 -0.0291032 
516 1 17.7666 -9.98796 11.9438 -0.0192689 0.0151001 -0.0146846 
528 1 18.0246 -9.85021 10.5818 0.00714654 0.00919063 -0.0240027 
350 2 16.7851 -7.30653 6.86017 0.0237091 0.0139213 -0.0374821 
420 1 25.6303 -4.84727 7.58225 -0.00376489 -0.000896702 0.00551581 
432 2 22.123 -7.77322 9.96641 -0.0188888 0.0609677 -0.00809869 
414 1 22.3386 -7.10425 10.71 0.0140077 0.0459313 -0.0109852 
405 1 23.4529 -6.21053 10.8206 0.000945334 0.00055063 -0.0331866 
534 2 22.4025 -11.2345 10.2333 -0.0355013 -0.00140841 0.00459609 
525 1 21.8018 -11.0376 11.1363 0.0337853 -0.000896007 -0.0162177 
526 1 19.3241 -9.76914 10.1914 0.00432416 -0.000293252 0.0279838 
418 1 24.4641 -6.26091 9.6316 0.0138423 -0.00164546 -0.0286963 
538 2 19.5819 -9.53778 9.2925 0.00402628 0.019724 0.0502271 
515 1 20.4688 -10.3832 10.9587 0.0055184 0.0164023 0.010689 
332 1 14.0114 -2.81838 6.58959 -0.00501054 -0.0148149 -0.0083732 
340 1 13.1982 -1.53462 6.83795 -0.00485065 -0.0312128 -0.000227433 
331 1 15.6672 -5.1406 6.46032 -0.00152608 -0.0337995 -0.00764312 
339 1 14.953 -3.13297 7.66381 0.00159678 0.0132152 -0.0163471 
338 1 16.645 -6.34657 6.22758 0.000644175 0.013915 0.00348269 
351 2 14.9785 -2.97972 8.84078 -0.00909546 -0.0412214 -0.0213128 
337 1 15.6191 -4.30469 7.59585 -0.0212234 -0.0366538 -0.000383381 
103 2 23.4858 11.2524 -5.06536 -0.0580302 -0.0284187 -0.0161954 
349 2 16.1332 -4.55574 8.62498 0.0700786 -0.050261 0.021773 
104 2 26.7871 12.0168 -8.90582 -0.0484644 0.0128177 -0.0242455 
523 1 16.739 -11.4186 15.8723 -0.000661877 -0.00592559 0.00482154 
514 1 17.1501 -11.2939 14.4909 0.0174679 0.0135686 0.0207075 
509 1 19.9416 -10.7167 12.2466 -0.0182667 -0.00997952 -0.000227899 
520 1 17.9756 -11.1836 16.6604 -0.0287707 -0.00747035 0.00975917 
536 2 14.8803 -10.7071 13.8767 -0.126341 -0.0322767 -0.00236367 
524 1 16.0695 -10.6492 13.7152 0.011216 -0.0148808 -0.00406744 
508 1 18.6385 -10.9871 14.0142 0.0128297 -0.00674953 -0.0108025 
527 1 16.2526 -10.1376 12.4139 0.000746238 -0.00469306 0.00341104 
510 1 18.7976 -10.5074 12.6556 0.00720084 -0.0293244 0.017152 
428 2 18.3533 0.458265 12.2408 -0.00817332 -0.0813282 -0.0139709 
506 1 19.6889 -10.9616 14.9646 0.0201441 -0.0139132 0.0118095 
519 1 20.3558 -10.6815 17.4184 0.00860904 0.0215962 0.00242589 
530 2 23.9174 -9.66577 15.2031 -0.0621644 -0.0822873 0.0243705 
429 2 20.7506 -8.88488 12.1555 0.0340735 0.0704545 -0.0131039 
407 1 20.7283 -8.0474 12.6746 -0.00793253 -0.00738052 -0.0142387 
399 1 19.574 -7.5097 13.1522 0.0197881 0.0169266 0.00848457 
507 1 21.0781 -10.875 13.1508 0.00851875 0.0164122 0.0231618 
401 1 19.3273 -6.03025 13.1567 0.017557 0.00596412 -0.0211681 
426 2 18.1968 -6.40687 12.936 -0.0266704 0.0524618 0.0204708 
250 2 18.6206 -8.27495 13.3774 0.00419558 0.039924 0.037431 
511 1 21.8626 -10.4077 15.6693 0.00225287 0.0172745 -0.0124436 
521 1 23.5426 -10.815 13.9715 -0.00306599 -0.0159692 -0.00676309 
505 1 21.0697 -11.0782 14.5696 0.0126483 0.00730909 0.0160415 
513 1 23.4713 -11.7055 12.8243 0.0237315 0.0123467 0.020952 
517 1 21.7225 -10.7856 17.0656 0.0141564 0.0125786 -0.0207853 
518 1 23.2854 -10.3917 15.0957 0.00655962 -0.00911202 -0.00338444 
529 2 22.5307 -10.7875 17.8373 -0.0513711 -0.0187685 0.0165013 
138 2 24.6124 -5.84091 29.8537 0.0328174 -0.0914294 -0.033931 
106 2 24.4022 11.2565 35.9383 0.0202571 -0.00492859 -0.00805249 
419 1 17.6856 -0.24174 12.3971 0.0198934 -0.0080214 0.000965225 
416 1 18.3154 -1.19443 13.2996 -0.0196533 -0.00759254 0.000415311 
406 1 19.5338 -1.89595 13.3378 0.0196362 0.0125038 -0.0307133 
400 1 20.7191 -4.12566 13.9526 0.00405507 0.00315288 -0.0105441 
402 1 20.0661 -5.09974 13.4421 -0.026288 -0.0118581 -0.00970339 
415 1 20.9361 -2.79898 13.6618 -0.0123633 0.00848429 0.00806448 
398 1 21.665 -1.6484 13.3351 0.0139356 0.0105419 -0.0265303 
425 2 23.8907 -2.36098 13.2593 -0.101508 0.0924294 0.0199221 
17 1 23.1227 -1.65789 13.5662 -0.018893 -0.00564349 -0.00133089 
397 1 23.6212 -0.446561 14.2338 0.0364552 0.012719 0.00354254 
403 1 24.594 -0.748397 15.164 0.0101044 -0.0435149 0.00334101 
413 1 25.5162 -1.38287 15.999 0.0344975 0.0345113 -0.0300835 
410 1 25.1466 -2.30701 17.0625 -0.0325119 0.00432572 0.0270329 
14 1 24.5676 -3.19484 17.5076 -0.00151166 0.0186001 -0.00667755 
422 2 23.922 -3.96251 17.8042 0.0104119 -0.0937563 -0.0533201 
409 1 23.0653 0.773127 14.6365 0.0114275 -0.00750189 -0.0212006 
404 1 21.2013 -0.486813 13.8609 -0.0111561 -0.00210654 0.00182642 
412 1 19.7527 -0.618666 14.0594 0.00663555 -0.0214695 0.0092158 
411 1 21.6891 0.711139 14.0591 0.0244044 -0.0189268 0.0374167 
427 2 21.3548 1.85542 13.826 0.0176913 0.0328026 -0.0438874 
424 2 19.1646 0.423746 14.1009 -0.0372109 -0.00648545 0.0862961 
423 2 23.5258 1.57779 15.2697 0.0107896 -0.025898 0.0562796 
116 1 21.3819 -6.53684 23.343 -0.013263 -0.0234777 0.0150042 
123 1 20.4124 -7.48317 24.2506 -0.00128565 -0.0110143 -0.00484121 
139 2 20.7209 -6.04178 21.0725 -0.0164025 0.00871011 0.0321683 
531 2 20.156 -10.5068 18.4099 0.012939 -0.0306265 0.0194833 
124 1 21.48 -6.23403 21.8787 -0.0116044 0.00303528 0.007416 
496 2 22.3643 -5.3139 20.4629 -0.0882782 0.102798 0.0150204 
127 1 22.717 -5.38199 21.6539 0.0059524 -0.0104773 -0.0241743 
29 2 26.5468 -1.00107 15.7559 0.0358887 -0.0336301 -0.0393342 
118 1 23.7444 -5.27183 22.5882 0.0145153 -0.0171387 0.0064258 
140 2 25.6082 -5.98736 21.1709 0.0289524 0.0291647 -0.0303411 
128 1 25.1927 -5.30125 21.9501 -0.0397439 -0.0178454 0.0133724 
131 1 26.1497 -4.59736 22.6297 -0.02753 0.0354637 -0.0316818 
143 2 27.3472 -4.80113 22.195 0.0302363 -0.00213126 0.030379 
112 1 23.5932 -5.34555 23.9951 -0.0107985 0.0242233 -0.00555965 
134 2 20.6007 -8.51859 27.367 -0.0976761 -0.0627069 -0.074636 
121 1 20.7654 -7.8327 25.5805 -0.0069387 0.0175878 0.00946822 
137 2 22.0988 -7.24921 29.6968 -0.047042 -0.00965158 -0.050006 
125 1 22.4253 -7.18744 28.5126 0.0090649 0.00550281 0.0088857 
122 1 21.5462 -7.87741 27.7114 0.00506328 0.00971396 -0.00250399 
115 1 21.9791 -7.64315 26.3181 -0.00946075 0.0267091 -0.0292697 
109 1 22.5325 -6.44895 25.7907 -0.00849188 0.00425194 0.0148433 
110 1 22.3911 -6.06287 24.3429 -0.045619 -0.0277322 0.00270566 
126 1 24.5326 -5.80046 28.881 0.025202 -0.0108253 0.0101713 
117 1 23.3505 -6.26372 27.9652 -0.0136691 0.0234529 -0.00878212 
111 1 23.5254 -5.7898 26.6781 -0.0124097 -0.00734475 0.00708779 
132 1 27.0215 -4.29729 24.7772 -0.029477 0.00167344 -0.0072787 
114 1 24.594 -4.76584 24.82 -0.0197467 -0.00550415 -0.00612415 
113 1 24.6165 -5.13385 26.1998 -0.00858024 -0.0119623 -0.00203623 
141 2 26.8375 -4.98854 28.4093 -0.0424591 -0.0512166 0.107587 
129 1 25.7419 -5.4197 28.2219 -0.016858 -0.0055953 -0.000179127 
119 1 25.7399 -5.47393 26.7389 -0.0012243 0.0530272 -0.0161145 
130 1 26.8818 -5.02539 25.9532 -0.00116193 -0.0292372 0.0264381 
142 2 27.6348 -5.67408 26.8657 -0.0305236 -0.051863 0.0104063 
120 1 25.6561 -4.22939 23.9998 0.0266431 0.0156067 -0.0234602 
431 2 16.6983 -0.293149 12.4891 -0.0134247 -0.0657945 0.00365376 
512 1 19.3319 -10.7941 16.3421 0.0192594 0.0169784 0.0103378 
522 1 22.1856 -11.3829 12.4874 -0.00750321 0.0102303 0.00146559 
33 2 31.6753 31.7038 5.24621 -0.0319957 -0.0477262 -0.0445092 
576 2 14.0034 35.6658 -4.82862 0.0474593 -0.0102392 0.00122591 
107 2 24.9211 13.1724 -10.2268 -0.102713 -0.0285621 -0.0774725 
214 2 12.3629 23.8576 10.48 0.0159904 0.0751873 -0.0118465 
561 1 12.1135 31.3897 -7.90665 0.00496069 -0.0153262 -0.0106813 
566 2 14.6728 31.2352 -11.0793 -0.000417433 0.0153054 0.104827 
554 1 14.6766 31.4224 -9.98149 0.010481 0.00568928 0.00380946 
557 1 16.0301 31.3389 -9.60218 -0.0148504 0.0144995 0.00708759 
547 1 16.8751 31.79 -8.60505 -0.0114076 -0.00771948 0.0110048 
287 2 31.5225 31.9297 5.50415 -0.0316644 0.00975843 0.0608459 
558 1 12.4383 31.1626 -9.11913 0.00791708 0.00603742 -0.00617246 
549 1 13.8843 31.2702 -8.71119 -0.0179506 0.019952 0.00782735 
545 1 13.8196 31.8414 -6.43612 -0.0100659 -0.0093705 -0.00462628 
551 1 12.2959 31.7452 -6.80895 -0.0192462 -0.0220939 -0.000580734 
543 1 14.7063 31.5917 -7.49561 0.00734012 -0.00822412 -0.00273837 
541 1 16.0612 32.3754 -7.49979 0.0270976 -0.0173157 -0.00826894 
569 2 16.0874 33.5503 -7.54194 -0.0201112 0.0176349 -0.0167097 
177 2 16.9285 34.7891 3.18253 -0.0285993 -0.00489285 -0.092176 
565 2 18.4889 32.0859 -9.44783 -0.139562 -0.135464 0.0499677 
553 1 18.3535 32.0536 -8.33754 -0.0230905 0.0224033 -0.0101806 
548 1 18.9356 32.4988 -7.27167 -0.00533239 0.00646509 -0.0188118 
567 2 20.064 32.8668 -7.77691 -0.00506391 -0.0147187 0.025905 
95 1 25.004 12.1285 -9.74883 -0.00197151 0.01434 -0.0256513 
88 1 23.617 12.0593 -5.94257 0.0157458 0.0068818 0.0233887 
421 2 13.7627 35.2586 -3.02265 -0.0433836 0.0729939 0.0473347 
542 1 16.664 32.1469 -6.26195 -0.00247425 0.0215589 -0.0267121 
563 1 14.2979 33.8818 -0.446496 -0.00289183 -0.0310181 0.012648 
546 1 14.4226 32.4968 -5.26292 0.00293019 -0.00259749 -0.00770776 
564 1 14.0155 33.5594 -4.33216 0.000312882 0.0222119 -0.0167292 
559 1 17.7027 33.4134 -3.88942 0.0269312 -0.00502707 0.00495058 
550 1 16.3469 32.8455 -4.01479 -0.0155258 -0.0206865 0.0221014 
544 1 15.8849 32.152 -5.09553 0.0387529 0.00854536 0.00462881 
560 1 15.3623 33.1091 -2.88173 -0.00503978 0.0143935 -0.00854638 
552 1 14.9918 33.4201 -1.54299 0.0200945 -0.00517171 0.0147289 
562 1 14.0955 35.0312 -4.02231 -0.0287394 0.00380284 -0.00207485 
572 2 14.0458 33.7817 0.506506 0.00458595 0.0439339 0.0147632 
210 2 25.2228 29.9534 -8.75163 0.117975 -0.050896 -0.0314169 
284 2 25.7197 29.4716 -8.88675 -0.0396981 0.0343587 -0.0798104 
555 1 18.0562 32.2073 -6.12623 0.00040976 0.00240415 -0.019025 
571 2 17.737 33.1837 -2.72622 -0.0508328 -0.0144742 -0.0554945 
556 1 18.5819 32.6558 -4.88017 0.00603866 -0.00494825 0.0194614 
568 2 19.7214 32.4326 -4.47181 0.0524588 0.0231388 0.0200795 
91 1 24.2888 12.0296 -6.80915 -0.0234767 -0.0147757 -0.00690054 
92 1 25.899 12.1193 -8.59115 -0.00522053 0.00154134 -0.0148889 
179 2 21.5627 35.5154 -6.33457 -0.0736549 -0.0704733 -0.00706643 
533 2 23.9698 36.224 11.7397 0.00614869 0.106764 0.000480734 
278 2 30.8274 33.0918 27.2302 0.0509169 -0.0284822 -0.067586 
283 2 31.2134 33.404 27.7955 0.0366592 -0.00123475 -0.0442613 
212 2 12.6869 23.9181 13.6488 -0.00113093 -0.0669125 -0.0827912 
535 2 16.6561 35.5776 16.2387 0.023849 0.133117 -0.0638763 
314 2 56.7178 -7.70716 -5.90569 -0.0344816 0.0125921 0.157245 
65 2 47.9416 29.5194 -1.06517 -0.05443 0.0884719 0.00955218 
69 2 52.6964 25.9144 0.378504 0.031245 0.0169998 0.00104797 
53 1 48.0977 29.3262 0.128387 0.00100189 -0.0193782 -0.00293933 
66 2 49.0744 24.0227 -1.32514 -0.041086 -0.0488725 -0.102142 
62 2 50.1101 28.4175 -0.808667 0.014841 -0.00436995 -0.105515 
45 1 49.4568 28.793 0.0757669 -0.0151054 0.0128317 0.00495479 
57 1 50.0609 25.2838 0.598117 -0.0258408 -0.00538595 -0.00192071 
47 1 49.4942 24.4325 -0.227924 0.00456014 0.020219 0.00224297 
58 1 50.7838 26.2214 1.59187 -0.00574577 -0.0431363 -0.00552862 
54 1 52.2962 26.4098 1.20954 0.00654942 -0.0117643 0.00245775 
60 1 53.0596 26.8373 2.41556 -0.0201332 0.0122318 0.00132366 
39 1 49.446 28.4299 1.44249 0.0387382 0.0118249 0.00249917 
41 1 50.1157 27.281 2.41442 0.0181783 -0.00554643 0.0142067 
48 1 52.4016 27.6416 3.51262 -0.0210211 -0.00804765 0.00978505 
42 1 51.0485 27.3295 3.59779 -0.000770882 0.00788161 0.0226912 
40 1 50.6837 28.5888 4.43489 -0.00608453 0.00831467 0.0111567 
38 1 49.6301 29.404 3.85974 -0.0159222 0.0110017 0.0181879 
46 1 51.0699 28.3558 5.95958 -0.00660428 -0.0267649 -0.00812428 
59 1 52.1677 27.3894 6.07748 0.0158412 -0.00723077 0.024295 
56 1 52.8818 27.4393 4.96663 0.00510517 0.00935244 -0.00106651 
37 1 48.9052 29.2103 2.4949 0.00973159 0.00603546 0.00199949 
72 2 53.6873 26.9306 4.8432 0.0212248 -0.0146509 0.11198 
70 2 54.1011 26.6306 2.46388 -0.130865 -0.0356809 0.000157752 
61 2 47.3371 30.4297 4.27603 0.00461347 0.0888764 -0.0623131 
50 1 47.6752 30.4499 1.06809 -0.00638299 -0.0143646 -0.00650457 
49 1 48.0624 31.2191 3.7045 -0.0056632 -0.00780583 0.00411382 
44 1 49.1396 30.4317 4.64181 -0.0279876 -0.00868595 -0.00586094 
51 1 49.0577 30.8342 5.95925 -0.00963562 -0.0104836 0.00503941 
43 1 48.3536 30.3848 2.38947 0.0225205 0.0058182 0.0151027 
68 2 52.738 27.1294 6.90318 -0.000290812 0.0541919 -0.0397649 
52 1 49.8142 30.2255 6.90766 0.00915788 -0.0157435 -0.01594 
55 1 50.7255 29.2804 7.28301 0.0185841 0.0368529 -0.0024153 
67 2 51.2632 29.1508 8.23528 -0.0855472 -0.0550344 -0.0690768 
98 2 41.9871 19.2438 -11.5854 -0.0246921 0.0383883 0.0143533 
105 2 53.476 32.394 2.15084 0.0793882 0.0186337 0.00911581 
466 2 54.0998 32.8103 1.69276 -0.0445407 0.0443406 -0.0992171 
63 2 48.1401 31.3738 6.23004 -0.0660117 0.136036 -0.00374912 
176 2 59.6444 31.6269 8.60576 -0.0612528 -0.0260018 0.00757479 
385 2 58.1022 19.563 28.4769 0.0096783 -0.0260113 0.0418499 
282 2 56.1651 34.9701 12.6991 0.0361801 0.0899411 -0.0300144 
135 2 56.1481 35.6906 12.4666 -0.0735947 0.0169269 0.0967716 
447 1 83.7909 11.1728 11.0125 0.00131337 -0.0131721 -0.0248683 
459 2 83.5494 10.2776 10.5286 -0.00971543 0.0080458 0.0274924 
378 1 79.0018 -6.1718 11.857 0.00154587 0.0282218 -0.00853889 
495 2 78.2777 -6.04892 10.9583 -0.0179746 0.0137905 0.0267838 
393 2 79.6955 -8.1681 10.3941 -0.0187912 0.0203228 0.0397176 
175 2 81.4914 -11.5291 10.4003 -0.0796523 0.109193 0.0480732 
154 1 81.3096 -11.778 11.333 0.0022257 -0.0346665 -0.0397306 
381 1 79.5347 -7.49365 11.2687 0.00685346 0.0034776 0.000143442 
460 2 81.231 11.9675 10.4974 0.0468074 0.0690429 -0.021794 
389 2 78.7608 -3.58196 11.9415 -0.0522131 0.0148596 0.043328 
167 1 80.144 -11.0169 11.8521 -0.00602483 0.0196036 -0.0120051 
361 1 81.7521 -4.39816 14.2097 0.00392256 0.00638385 0.0180174 
396 2 81.2009 -10.803 13.4159 0.0250761 0.00948234 -0.0584402 
384 1 81.5033 -9.73722 13.8594 0.0073834 0.0122432 -0.0221493 
365 1 81.2214 -6.74712 13.2748 0.00909809 -0.0132113 -0.0373019 
369 1 79.6987 -4.98022 12.798 0.00596555 -0.0158556 -0.00195103 
390 2 78.755 -10.3819 13.3052 -0.0786266 -0.0063894 -0.049171 
371 1 80.4523 -7.55506 12.4161 -0.00530276 0.00296482 0.0139943 
382 1 80.6758 -8.98972 13.1528 -0.00119202 0.00501589 -0.00947035 
164 1 79.6073 -10.057 12.6928 0.0206841 -0.00776062 0.00993545 
372 1 82.3916 -8.76894 14.4433 -0.0227454 -0.0202415 0.0101015 
366 1 82.1482 -7.33612 14.3406 -0.0142446 -0.016154 -0.00869823 
364 1 83.1452 -6.45829 14.3227 0.00661669 -0.00285561 0.0245708 
374 1 80.3939 -2.71911 13.1976 0.0435143 -0.0347245 -0.0159335 
363 1 81.0107 -5.44972 13.4624 0.0173647 -0.0191804 -0.0148027 
362 1 82.9749 -4.94571 14.2516 -0.00760249 -0.00499043 0.00231995 
383 1 83.7485 -9.33385 14.8684 -0.0122185 -0.00897091 0.00758397 
373 1 82.6134 -2.13357 13.9819 -0.0130221 -0.00180515 0.0123312 
377 1 79.3804 -3.70615 12.9005 0.0207568 -0.0168704 0.00656031 
386 2 80.0689 -1.70707 13.0896 0.0221094 0.0761747 -0.0130801 
387 2 82.3013 -1.06222 13.8671 -0.0440269 0.0135883 -0.00335869 
367 1 81.5144 -3.11877 14.0096 -0.012746 -0.00522647 0.0266877 
375 1 83.7797 -2.84039 14.4761 0.0149217 0.0229528 0.00336822 
491 1 79.2054 29.6687 5.71895 -0.0125227 0.0151872 -0.0109636 
488 1 79.9704 30.083 4.39721 0.0140562 0.00855335 0.00794798 
501 2 80.0751 30.2246 3.27864 -0.00636027 0.0104615 -0.0603347 
500 2 78.1544 29.3674 4.98289 -0.0938573 -0.0286584 0.0166982 
532 2 76.0644 25.8096 6.60314 -0.0118825 -0.0562836 0.0518289 
482 1 83.0089 31.9973 3.41581 -0.0375076 -0.0345714 0.0189275 
477 1 81.2986 30.9341 4.42847 -0.0265145 -0.0316878 -0.0207694 
485 1 82.4365 30.7487 3.4856 0.0244225 -0.00192894 0.0025254 
498 2 82.3929 29.9519 2.60793 -0.00437692 0.00772229 0.00734742 
470 1 81.7102 30.6081 8.04807 -0.0142627 0.00456008 -0.00365279 
475 1 83.5717 32.6118 4.69273 -0.0102315 -0.0256865 -0.0205063 
471 1 81.5529 31.1202 5.72136 -0.00793083 -0.0112837 0.00406905 
469 1 82.9129 31.7759 5.69006 -0.0103415 -0.01767 0.0134248 
440 1 83.0161 12.1592 11.8447 0.00459267 0.0151052 -0.0186833 
248 2 60.2951 31.6202 9.0394 0.0220344 -0.020617 -0.0611927 
502 2 76.2545 23.4133 9.55165 0.028824 0.0442924 -0.0134763 
486 1 76.5358 24.0874 10.2891 -0.0280513 -0.0145433 -0.0139288 
503 2 81.8907 28.4369 10.7118 -0.0348175 -0.0413352 0.030184 
478 1 82.3389 29.1084 9.93472 -0.00153323 -0.00210154 -0.00702107 
473 1 80.105 28.8033 8.75678 0.000419818 0.0135693 -0.0363726 
474 1 79.6923 29.5305 7.22854 -0.0157704 -0.00152471 -0.0108225 
480 1 77.6427 27.3987 8.66308 0.0175882 0.0292472 0.00417114 
492 1 77.1752 26.134 8.97784 0.00887286 0.0102564 -0.00236551 