ITEM: TIMESTEP
20000
ITEM: NUMBER OF ATOMS
576
ITEM: BOX BOUNDS pp pp pp
-1.2000000000000000e+01 8.4000000000000000e+01
-1.2000000000000000e+01 3.6000000000000000e+01
-1.2000000000000000e+01 3.6000000000000000e+01
ITEM: ATOMS id type x y z vx vy vz 
213 2 -6.18696 -11.5899 -9.37978 -0.0393495 0.0229924 -0.021734 
214 2 -6.72238 -11.8495 -6.62659 0.0304273 0.022225 -0.0333426 
210 2 -7.95521 -11.4223 -11.2103 -0.0413978 0.101273 -0.00263697 
180 2 -7.41032 15.8204 -10.1198 -0.0424488 0.0441881 -0.019657 
179 2 -9.02846 14.9917 -8.64227 0.0464016 0.00204328 0.0957589 
167 1 -8.48235 15.5006 -7.9161 -0.0100509 0.0046684 0.00123807 
156 1 -7.3104 16.5775 -8.18126 -0.0281199 0.0163194 -0.0557817 
164 1 -9.1095 16.0784 -6.74072 0.0264526 -0.021478 0.0120656 
150 1 -6.86041 17.4196 -7.18823 -0.0216074 -0.0209634 -0.0116019 
176 2 -9.94747 15.435 -6.24022 -0.0282866 -0.00509472 0.0332365 
178 2 -4.73382 17.3455 -10.3074 0.00695148 0.0280048 -0.110486 
168 1 -6.7493 16.2502 -9.47432 -0.0112309 0.0111228 -0.0134526 
166 1 -5.58133 17.0322 -9.67125 0.0159406 0.0121806 -0.0196057 
149 1 -5.54633 18.1606 -7.56875 0.0194502 0.0253403 -0.0109873 
177 2 -2.73634 19.0126 -9.62633 -0.0611386 -0.0906446 -0.0742717 
155 1 -4.83355 18.0553 -8.67971 -0.0105354 0.00538736 0.00741722 
165 1 -3.57546 18.7087 -8.54122 -0.0248233 0.016255 0.01019 
174 2 -2.38962 19.7223 -7.45606 -0.0509383 0.0069162 -0.0544786 
162 1 -3.47086 19.5146 -7.42621 -0.0150337 0.02461 -0.00305831 
153 1 -4.31139 19.9237 -6.29275 -0.0301636 -0.00220266 0.0182527 
437 1 6.66762 22.0279 -5.89467 0.0100495 0.000472541 -0.0241082 
438 1 7.33484 21.4886 -6.96286 0.00312796 0.0043305 0.0494545 
436 1 7.03495 22.4279 -8.05362 -0.00930759 -0.00198077 -0.000936756 
434 1 6.04914 23.4867 -8.08705 0.0316516 0.00164989 0.021809 
468 2 8.92925 18.7647 -6.34747 -0.0490062 -0.0475739 -0.035536 
456 1 8.35939 19.6823 -5.90298 0.0227171 0.0119839 -0.0138746 
444 1 8.4459 20.652 -7.01158 0.0141759 0.00741197 0.0102836 
455 1 8.218 20.2242 -8.51251 0.0406071 0.00534252 0.00793289 
442 1 7.77792 22.3251 -9.31313 0.019833 0.012456 -0.0118888 
452 1 8.35581 21.0204 -9.69261 0.00199769 -0.00903441 0.00132725 
467 2 8.18081 18.9912 -8.36159 0.0630104 -0.031577 0.0156718 
451 1 7.57159 23.1094 -10.5466 -0.008648 -0.0141691 0.00683558 
464 2 8.63854 20.711 -10.7259 0.0185833 0.0731189 -0.0530228 
463 2 8.15852 22.7155 -11.5779 0.105326 0.0631852 0.0742885 
211 2 -10.4668 28.8664 -7.04566 0.0271068 0.0604508 -0.0294323 
199 1 -10.0618 29.7341 -7.53798 -0.0178978 0.0100164 -0.00796546 
196 1 -10.5405 29.67 -8.69379 -0.00867407 -0.00313532 0.01342 
208 2 -10.9044 28.4913 -8.68329 0.0383522 -0.066624 0.0644794 
195 1 -10.6247 30.3168 -10.9792 -0.016159 -0.00280697 0.0131337 
207 2 -11.2466 29.5028 -10.6661 -0.0583673 0.0289823 -0.0324011 
433 1 5.22234 23.492 -7.02265 0.00493472 0.00470192 0.0176239 
440 1 5.9288 24.2647 -9.38333 -0.00197389 -0.0160353 0.00262018 
439 1 4.12102 24.5808 -7.0383 0.00479643 -0.022295 -0.0109638 
445 1 3.70551 25.3811 -8.28818 -0.0255454 -0.0288462 0.00504329 
457 2 2.71406 25.9427 -8.07991 0.0664711 0.0572387 0.0389326 
447 1 4.57868 25.0784 -9.25932 0.0229439 -0.024928 -0.00679291 
459 2 4.05198 25.6434 -10.0397 0.0780625 0.0611153 -0.104518 
448 1 6.89218 24.3795 -10.5186 -0.00329398 -0.0379487 -0.00154019 
460 2 7.17179 25.2803 -10.9988 0.0155219 -0.0376846 -0.0397163 
190 1 -9.45562 30.9996 -6.95489 0.00154352 0.00295681 -0.0191164 
200 1 -9.0589 30.9845 -5.61223 -0.0270219 0.0248235 -0.0142242 
184 1 -9.14531 31.8767 -8.07873 -0.00299071 -0.00401699 0.00267912 
188 1 -10.4125 30.6675 -9.569 -0.00140573 0.0116393 -0.0109737 
182 1 -10.091 31.8941 -9.10145 -0.0117075 0.00756151 -0.0078336 
181 1 -10.2594 32.8005 -10.1506 0.00856835 -0.0274831 -0.00383137 
187 1 -10.0507 32.563 -11.5685 -0.0296637 -0.0169339 -0.005632 
186 1 -8.7104 33.2157 -7.71272 -0.0266286 -0.0109455 -0.0160438 
192 1 -8.57785 33.469 -6.19505 -0.0313785 0.0255054 -0.00173446 
185 1 -8.97717 34.328 -8.56042 0.00137599 0.0218295 0.0131311 
183 1 -9.72492 34.0814 -9.7164 -0.0252535 0.0254394 0.00377285 
189 1 -8.82664 34.72 -10.7389 -0.0210609 -0.00589552 0.0133841 
449 1 4.38835 24.6233 -4.56092 -0.0232425 -0.00844352 0.0188342 
216 2 -7.53363 34.2653 -4.83882 -0.0877313 -0.0495755 -0.0456677 
204 1 -7.87532 34.5897 -5.7393 -0.0250899 0.0197898 0.0127979 
202 1 -7.39361 35.2838 -6.83673 -0.00315064 0.00951689 0.0150026 
191 1 -7.96599 35.5392 -8.16074 -0.0147856 0.00630435 6.67056e-05 
215 2 -8.58258 32.4638 -4.27793 -0.0632323 -0.00910392 0.0564002 
201 1 -7.09407 35.9111 -9.25641 -0.032767 0.0166101 -0.0030188 
198 1 -8.06485 35.8524 -10.2942 -0.0175232 0.0161238 -0.000394248 
203 1 -8.53026 32.2456 -5.39764 -0.021972 0.0237205 0.0131308 
461 2 4.08308 25.1579 -3.65376 0.0164416 -0.0460634 0.11718 
154 1 -8.61077 16.8032 -5.71817 -0.0171092 -0.0182921 0.00749159 
175 2 -10.7409 17.1074 -4.91017 -0.0493957 -0.0596048 0.0518112 
163 1 -9.56407 17.3401 -4.77667 -0.00719061 -0.0268532 0.00963715 
160 1 -9.14 18.1072 -3.66488 -0.000547968 -0.00188973 0.00978923 
172 2 -9.80603 18.543 -2.8378 -0.135523 -0.0533091 -0.0172521 
148 1 -7.31131 17.573 -5.85787 -0.00321768 -0.0263955 -0.0280146 
171 2 -7.47353 19.1782 -1.46637 -0.0307148 -0.0681388 0.0115255 
152 1 -7.79647 18.3518 -3.60118 -0.0200326 -0.00235568 0.0153158 
159 1 -7.22118 19.0923 -2.55281 0.0297964 -0.0312818 -0.0176732 
146 1 -6.92222 18.3286 -4.81349 -0.00748865 -0.0139738 -0.0126691 
169 2 -5.32247 19.8383 -1.8717 -0.00910831 -0.0252746 -0.0525369 
147 1 -5.45924 19.1581 -6.38882 0.0155629 -0.00563446 0.0205664 
157 1 -5.83194 19.4632 -2.61805 0.00180692 -0.0349998 -0.012459 
158 1 -4.7064 21.2316 -4.19005 -0.0163025 0.000737267 -0.00700748 
145 1 -5.88772 19.2015 -5.03997 0.0124381 0.000672986 0.0202237 
151 1 -5.46194 20.0305 -3.83618 0.00302796 0.00104329 0.0318959 
170 2 -4.45986 22.3723 -3.66208 -0.021057 -0.0280492 -0.0552771 
161 1 -4.084 21.1752 -5.45312 -0.0186574 -0.00679099 -0.00510476 
173 2 -3.24928 21.6709 -5.66071 0.0529761 0.0609396 0.05982 
435 1 5.89089 22.9977 -5.83486 0.0057905 0.0213045 0.00283145 
441 1 5.21651 23.4536 -4.66883 0.00897848 0.00385292 -0.00511671 
453 1 6.39353 22.0904 -3.20317 0.00254532 0.0193612 0.0165799 
450 1 5.53359 23.0444 -3.16571 -0.00847836 0.003112 -0.0107576 
462 2 5.378 23.6717 -2.24759 -0.000117994 0.025285 -0.02323 
466 2 8.00178 19.6152 -3.93898 -0.117448 0.0356056 -0.0465968 
454 1 7.6401 20.2652 -4.75484 0.0125613 0.0024186 -0.0117438 
443 1 6.88567 21.4773 -4.53905 0.00133962 0.0256398 0.0162299 
465 2 6.78392 22.0132 -2.19581 0.0140656 0.0229886 -0.0624298 
212 2 -9.3586 30.3476 -5.00934 0.0112683 0.088604 -0.0471609 
446 1 3.80977 24.938 -5.82474 -0.00768535 -0.000456672 0.0185702 
458 2 3.21717 26.0422 -5.60024 -0.0248973 0.0593133 -0.0413778 
352 2 7.6127 28.3717 18.0257 -0.00482144 -0.0184041 -0.0458836 
355 2 9.75102 29.1185 18.6013 -0.00348173 0.0157756 -0.0438275 
338 1 3.73496 31.5912 21.9032 -0.00884425 -0.00230182 -0.0108539 
351 2 4.63946 29.3942 17.7313 0.0436973 -0.0929802 -0.0221839 
337 1 4.185 30.1235 19.7431 -0.0459818 0.00427204 -0.0127601 
349 2 2.98893 30.2807 20.039 0.0212365 -0.0206817 -0.0553368 
350 2 2.80456 31.0831 21.8364 -0.0286324 -0.0263455 0.0435657 
339 1 4.97457 29.6568 18.8059 -0.0158316 -0.0157166 -0.000251271 
331 1 4.61267 31.0395 20.8763 0.00345607 -0.0253338 -0.00399685 
341 1 4.11456 32.36 22.9861 0.000321485 -0.0302616 0.0118868 
353 2 3.21368 32.2713 23.6858 0.0581095 -0.0149247 0.0848122 
344 1 10.7853 31.2067 19.9619 -0.0235893 0.0125843 -0.000865839 
334 1 9.26039 30.9636 19.5507 0.00893432 -0.00125003 -0.00577209 
343 1 8.85894 29.793 19.0101 0.000785984 0.0055952 0.0160067 
328 1 8.05836 31.5756 20.1829 -0.0112279 -0.00395771 -0.0149094 
340 1 7.55878 29.1689 18.8604 0.0105324 -0.0466238 0.0028673 
330 1 8.45215 32.5753 21.2257 -0.020391 -0.00495141 0.0169754 
326 1 6.95278 30.9155 20.1145 -0.0104798 -0.00493463 -0.00559366 
332 1 6.41197 29.7259 19.4808 0.0266203 -0.0381722 0.0145307 
329 1 7.61976 32.6619 22.486 -0.0287604 -0.0151786 0.0168531 
327 1 6.38864 32.1174 22.4517 0.00999414 -0.0159448 -0.0147066 
325 1 5.93946 31.467 20.991 -0.00563527 -0.0142104 -0.0199866 
335 1 8.39173 32.8998 23.7715 0.00481653 0.0118162 -0.00232437 
336 1 9.78859 32.7167 21.5738 -0.0254991 0.0202499 0.00911437 
333 1 5.48611 32.6422 23.3531 -0.0300411 -0.00342155 -0.0130714 
347 1 10.9159 32.353 20.7082 -0.000891735 -0.00399249 0.0116597 
209 2 -9.06135 35.3341 35.1386 -0.0598471 0.00758959 -0.120809 
346 1 9.83873 33.1494 23.9058 0.000201052 -0.00996601 -0.0124129 
348 1 10.565 33.4506 22.7467 -0.0187324 0.00338787 -0.00976573 
342 1 6.17458 33.2378 24.6796 -0.0273455 -0.0110878 0.0134511 
345 1 7.41415 33.3791 24.7705 -0.0230428 -0.0105385 -0.00901828 
357 2 7.33806 33.7982 26.0062 -0.0468025 -0.0185287 0.0610904 
358 2 10.1282 33.9757 24.915 -0.0042511 -0.0366594 -0.0319541 
354 2 5.42342 33.6229 25.3283 0.0825905 -0.115591 -0.0601978 
194 1 -9.85313 33.6052 35.4306 -0.00989189 0.00141068 -0.00961134 
206 2 -9.7925 33.4364 34.268 0.023758 0.0284895 -0.0502528 
205 2 -10.6029 30.8104 34.995 -0.120767 -0.026841 -0.00301691 
356 2 11.1673 30.2028 19.4123 0.0207063 -0.00840824 -0.0370486 
197 1 -9.45155 34.7535 35.9551 -0.0500124 -0.0013199 -0.00125006 
360 2 11.7728 33.7637 22.5459 0.0264009 0.00412447 -0.0609153 
193 1 -10.6762 31.2779 36.0412 -0.0212282 -0.010548 0.00936915 
32 2 22.9229 -11.5788 5.1675 -0.0377296 0.0456074 -0.0153603 
31 2 19.9299 -9.58611 5.09362 0.0369081 -0.0339499 0.0809265 
35 2 24.2683 -9.23957 4.78105 0.0523916 -0.121635 0.00788909 
15 1 17.9845 -11.2368 9.07528 0.00113277 0.00620935 -0.0103023 
13 1 18.3924 -11.7178 10.4899 0.00742517 0.00888979 0.00984562 
34 2 26.2216 -8.86156 9.04022 0.0418331 -0.0603331 -0.0957942 
27 2 17.3207 -11.8501 8.27213 0.107372 -0.072671 -0.112532 
28 2 17.9034 -9.76082 7.15115 -0.0113004 0.0355178 -0.0124728 
8 1 19.1608 -11.0263 8.12591 0.00814842 -0.000347046 -0.000558997 
7 1 19.7266 -11.1878 11.002 -0.0108797 -0.0126187 0.00779808 
3 1 22.0406 -10.7368 10.3813 0.00227626 -0.00905811 -0.00907819 
1 1 20.6423 -10.84 10.0642 0.0230068 0.00295749 -0.00738165 
2 1 20.4831 -10.7781 8.71295 0.000619659 0.00412697 0.00793591 
21 1 24.7062 -10.4845 11.4057 0.0292967 -0.0213984 -0.0182726 
4 1 21.6648 -10.5106 7.77248 0.00617891 0.0223203 0.00957978 
10 1 21.3798 -10.7487 6.37311 0.00176368 0.0242429 0.00485159 
6 1 22.9138 -10.2457 8.11535 0.000410975 -0.00435916 -0.00673382 
5 1 23.1296 -10.3092 9.55713 -0.0144582 -0.00880299 -0.0176858 
12 1 23.7416 -9.60246 7.28052 0.0395355 -0.00832967 0.0179317 
23 1 23.7044 -9.83434 5.70902 0.0254231 0.000963239 -0.00326265 
20 1 22.4121 -10.6832 5.42726 -0.0153259 0.007749 0.0260505 
11 1 24.5153 -10.1485 10.085 0.0268569 0.0171354 0.00734547 
24 1 24.979 -9.15024 7.73079 0.00517656 0.0201326 -0.00769015 
19 1 19.9168 -10.3326 5.94714 0.00888497 -0.0126524 0.0054725 
16 1 19.017 -10.1853 6.92585 0.0145946 -0.0103859 -0.0083968 
22 1 25.3625 -9.51414 9.01419 0.0153314 -0.0320843 -0.013454 
36 2 25.087 -8.56556 6.57722 -0.00315694 0.0271441 0.0492245 
25 2 17.6408 -11.6495 11.3525 0.0120708 -0.102606 -0.105267 
9 1 22.2999 -11.0744 11.7605 0.00650709 0.00633108 0.00910588 
33 2 25.8866 -10.3943 11.2624 0.0544015 -0.061529 0.0208002 
26 2 19.3197 -10.5464 13.1274 0.0356123 -0.0510599 0.0605418 
29 2 21.6913 -10.6817 13.8384 0.0733841 -0.0207477 -0.0478967 
17 1 21.4154 -11.0452 12.8777 0.0327518 -0.0102396 -0.0210688 
14 1 20.1285 -11.0563 12.4403 0.0240764 -0.0333582 0.0175817 
18 1 23.7497 -10.9182 12.2324 0.0191767 -0.0277168 -0.0259502 
30 2 23.949 -11.6308 13.1079 0.033564 -0.0667942 0.000554169 
495 2 29.257 -11.5415 18.777 0.0697229 -0.0187492 -0.100233 
389 2 33.2025 25.9014 9.27822 -0.00200885 0.0138773 0.00708663 
377 1 33.8487 25.4508 10.1325 -0.00200699 0.017719 0.0169503 
291 1 26.2447 32.4757 11.2031 0.0260447 -0.00824196 0.00271753 
290 1 23.8174 31.1748 10.8952 -0.00615283 0.00646987 -0.00418316 
323 2 26.9021 26.7194 10.03 0.110924 0.0097289 0.0615681 
308 1 25.2148 27.339 11.0506 0.0107919 -0.0148189 -0.00235676 
320 2 24.6691 26.5113 11.2166 -0.0215856 -0.00789771 0.088812 
298 1 24.4953 28.6014 11.2883 0.0109211 0.00611696 -0.0188586 
311 1 26.168 27.5078 10.2901 5.8235e-05 -0.0154071 0.00256697 
369 1 35.1201 25.9848 10.3085 -0.0105663 0.00781709 0.00769209 
390 2 34.9091 27.0052 8.40608 -0.00207275 0.0533391 0.0599628 
386 2 32.0308 24.8624 11.0766 -0.0342362 0.0613333 0.0970639 
307 1 23.2291 28.2831 11.5341 -0.00635674 0.00535561 -0.00680371 
363 1 35.8688 25.5899 11.6212 0.0037507 0.0129878 -0.0265296 
374 1 33.0706 24.9198 11.1961 -0.00150912 0.0338359 0.0125895 
304 1 22.3377 29.3746 11.6534 0.000999735 0.00817879 -0.00921247 
378 1 35.5378 26.8581 9.37224 -0.0101294 0.0137142 0.0155095 
289 1 24.6688 32.3285 11.3428 0.022908 -0.00290775 -0.00154424 
292 1 24.7836 29.9896 10.7656 -0.00154673 -0.00478024 -0.00961572 
310 1 28.9429 30.1747 9.69419 0.0224592 -0.0161265 -0.0263329 
294 1 26.1454 30.0065 10.672 0.011956 -0.00688829 -0.0241478 
300 1 26.7616 28.8846 9.9825 0.0124536 -0.0219205 -0.0175924 
324 2 28.1856 28.0813 9.01211 0.0484489 -0.107359 -0.137539 
312 1 27.8975 29.096 9.21061 0.00360385 -0.0377084 -0.00907279 
322 2 29.7615 30.5825 8.97025 0.00899197 0.0572986 -0.0163933 
296 1 22.798 30.6476 11.8793 0.00952596 -0.0036123 0.0147985 
299 1 28.3781 31.3046 10.707 -0.00148788 -0.0252325 0.00192078 
293 1 26.8512 31.4913 10.7147 -0.0116304 0.00172159 -0.0132361 
297 1 27.1004 33.5163 11.7733 0.0287143 0.010775 0.00658635 
309 1 29.1588 32.6126 10.917 -0.00331786 -0.000954662 -0.0379817 
319 2 22.5432 27.4091 11.8655 0.0210107 -0.0616653 0.0577619 
316 2 21.3354 29.1238 12.0047 0.0330622 0.14743 -0.0127363 
306 1 28.6328 33.8247 11.4454 0.0044853 -0.0191757 -0.0211617 
321 2 30.283 32.5667 10.9639 -0.0332057 -0.0217104 -0.0463124 
315 2 20.8928 32.1176 11.8463 0.0662865 0.131107 -0.00102339 
385 2 32.5083 23.636 13.7067 -0.0621347 0.0432359 -0.0860946 
314 2 25.0985 35.0455 13.7248 0.0654037 -0.0459175 0.00469112 
373 1 33.2318 24.4015 13.7259 0.00120456 -0.00261929 -0.0227914 
387 2 33.861 24.3752 15.9469 0.0122375 0.00132965 -0.039224 
375 1 34.1754 24.0466 14.8896 0.0143821 0.00148967 -0.0116928 
367 1 33.9424 24.6458 12.444 -0.0320594 0.0111904 -0.011949 
303 1 21.8342 31.7631 12.3589 0.0135851 0.0230994 0.0312754 
472 1 31.7311 32.5573 18.925 -0.0137013 0.0198229 0.0173831 
317 2 26.704 34.9392 13.1807 -0.0367756 -0.0349717 -0.0348341 
361 1 35.4433 24.8727 12.5781 -0.000556961 0.021376 -0.013025 
504 2 35.1019 29.6206 18.1814 -0.0546932 -0.0564166 0.0741353 
488 1 31.5812 30.4686 19.8437 0.00513902 -0.00216201 0.000264236 
499 2 29.1856 31.5182 20.7832 -0.114109 -0.0403713 0.101065 
305 1 26.1411 34.4078 12.4425 0.0306282 -0.0378042 0.00367849 
487 1 29.466 32.2011 19.9996 -0.0120722 0.00174965 -0.0163911 
500 2 30.8897 30.1585 20.7988 0.0139597 -0.04847 0.0569237 
478 1 30.8951 31.7434 19.7097 -0.0095806 0.000966309 0.0118448 
497 2 30.2607 32.0717 13.5897 0.0405367 0.0122436 -0.0808922 
485 1 30.3508 32.332 14.6953 0.0323764 0.00960691 -0.0076693 
482 1 29.4028 32.8714 15.6336 0.0442579 0.00668901 0.00510926 
494 2 28.3662 32.6766 15.7358 -0.0308467 -0.0691337 -0.0180219 
318 2 29.2421 34.6883 11.4924 0.0692123 0.00907511 -0.110882 
491 1 32.6515 29.5708 19.4327 -0.000471018 0.007754 -0.0178575 
301 1 22.5809 32.9896 12.9016 0.027826 -0.0315991 -0.00286426 
302 1 24.7616 34.2655 12.8517 0.0247612 -9.13979e-05 -0.00246525 
469 1 31.1172 33.6101 17.0302 0.00402751 0.0210873 0.000870596 
475 1 29.6629 33.7472 16.7274 0.0188046 0.000217728 0.0129954 
368 1 35.5309 24.4311 14.8403 0.00650601 0.00434779 -0.0211011 
313 2 22.1111 33.6573 13.761 0.0438908 -0.0386982 0.00404521 
493 2 29.061 35.7731 16.2142 0.120608 0.0193669 -0.0672309 
481 1 29.0196 34.9722 17.13 0.0172635 -0.00949109 0.00420044 
502 2 35.2141 29.6894 15.471 -0.062223 0.0103545 0.000839824 
498 2 32.3352 31.8392 12.5693 0.0498441 0.017094 0.064861 
486 1 32.5549 32.2167 13.6618 0.0226613 -0.00253021 -0.00646748 
477 1 31.725 32.9254 14.6912 -0.00146866 -0.0168479 0.00652236 
471 1 32.0205 32.9074 16.1216 -0.00571086 0.0173141 -0.0020976 
501 2 34.0098 30.4983 14.1285 -0.00581456 0.00446922 -0.00314115 
489 1 33.1325 31.0909 14.5101 0.0260969 -0.00981384 -0.0131451 
473 1 32.799 32.0253 16.864 -0.00685365 0.0154528 0.0259057 
479 1 33.4558 31.1443 15.9449 0.00190874 -0.00252258 -0.004256 
490 1 34.4147 30.1047 16.2108 0.00593643 -0.00283664 -0.00523995 
492 1 34.4071 29.9886 17.5333 -0.010275 0.00553094 0.00862999 
474 1 32.7527 31.86 18.2364 0.0204879 -0.0116151 -0.00535722 
480 1 33.2786 30.6056 18.4485 -0.0112388 -0.00274646 0.0130041 
503 2 33.2796 28.9636 20.0479 0.0149025 -0.0319867 0.0723621 
359 2 11.8789 32.8457 20.8713 -0.0118106 0.053231 0.0700773 
295 1 23.9096 33.2363 12.4018 0.009544 -0.00549003 0.00350987 
483 1 29.3157 35.4369 18.436 0.0125904 0.00553504 0.00638229 
476 1 30.0524 34.3863 19.1387 0.0115672 0.014304 0.00747609 
470 1 31.1195 33.6127 18.4699 0.0122581 0.00327993 0.000807441 
496 2 28.2316 33.7757 20.5363 0.0158658 0.027895 -0.0659302 
484 1 29.1401 33.4929 20.08 -0.00637602 -0.0044437 0.00755397 
61 2 48.5109 -3.70365 -0.727958 0.0879099 0.0185594 0.0806294 
66 2 42.2161 -1.29805 -0.825284 0.0285196 0.0414016 -0.0107544 
65 2 44.1239 -2.04706 -1.76752 -0.0178184 -0.0701413 0.041987 
53 1 44.2715 -2.61499 -0.923962 0.0390018 0.00972148 -0.00669314 
62 2 45.6884 -3.02827 -2.07413 -0.00305327 -0.0735911 -0.0496429 
50 1 45.5177 -3.28206 -0.993023 0.00712358 0.0043534 0.0269856 
43 1 46.2525 -3.96586 0.110416 0.0182692 0.0243621 -0.00150465 
70 2 41.1196 -0.119374 3.86422 0.0221997 -0.069166 -0.0778167 
60 1 42.8807 -1.29451 4.966 0.00160323 -0.0168378 -0.0145415 
69 2 41.2956 0.00639821 1.25899 -0.0081605 -0.0078502 -0.0787666 
47 1 42.7917 -1.14465 2.70653 0.0218674 0.00980615 0.0192521 
58 1 41.9624 -0.979568 3.87893 0.0224712 0.00902518 0.0222412 
54 1 42.5262 -1.31541 0.244561 0.0148621 0.0373429 -0.00099657 
57 1 42.0587 -0.797895 1.40034 0.0262546 -0.00171001 0.0177482 
59 1 44.5078 -2.64742 6.45582 0.0154557 0.000576254 -0.0115176 
39 1 44.5307 -2.59097 1.39667 0.00837232 0.00918297 0.00575168 
41 1 43.8961 -2.16764 2.74684 0.000405975 -0.00260735 -0.0125631 
45 1 43.6472 -2.42489 0.331407 -0.0139685 5.96448e-05 -0.0117864 
48 1 44.0505 -1.97967 5.23471 0.00926528 -0.0240278 0.0158929 
63 2 49.5604 -3.75779 0.568747 -0.0287754 0.0500566 -0.00855833 
56 1 45.7988 -3.26344 6.35384 -0.0097747 -0.0304604 -0.00836664 
42 1 44.4862 -2.66447 3.95306 0.00454119 -0.0406664 0.000303059 
40 1 45.8489 -3.33088 3.72595 -0.00449201 -0.0101122 0.0069558 
37 1 45.5631 -3.56577 1.24534 0.0479146 -0.00113596 0.018519 
38 1 46.4699 -3.63461 2.51595 -0.00266695 -0.00528621 -0.0166713 
46 1 46.563 -3.52407 5.03026 -0.00798249 0.0068989 -0.00433841 
67 2 48.7733 -4.11097 5.67452 0.0683979 -0.0185148 -0.000439055 
55 1 48.0046 -4.01067 4.85348 0.00953288 -0.00890687 -0.000754357 
52 1 48.5647 -4.25419 3.68543 0.0240021 -0.0159187 0.00532303 
51 1 48.6319 -4.05086 1.1269 0.0126155 0.0192291 -0.0214581 
44 1 47.7967 -4.14553 2.41923 0.008603 -0.0124522 0.0106093 
49 1 47.8049 -3.99964 -0.00633796 0.0109975 0.00386908 0.00632371 
64 2 49.6743 -4.49226 3.75153 -0.0295621 -0.0621998 -0.0688076 
72 2 42.4165 -1.35673 6.02186 0.0647263 -0.012097 0.0529903 
68 2 46.7247 -3.08093 6.80717 -0.0111881 0.116299 0.0478716 
71 2 44.1682 -1.79465 7.24443 0.0325675 0.0689906 -0.0513885 
524 1 46.7501 -1.59217 34.9611 0.0119629 -0.00131388 0.000455121 
535 2 44.1701 -2.7559 34.5249 -0.000517681 0.0306052 -0.0258981 
536 2 46.6412 -2.56071 35.4711 -0.0217091 0.0434502 0.0792568 
534 2 47.7901 5.08284 31.2264 -0.000982128 0.0307542 0.0775862 
531 2 41.3828 1.06662 33.2654 0.0297076 -0.0326243 0.0175237 
521 1 45.6236 5.52422 32.6074 -0.0194908 -0.0283441 0.0107434 
513 1 46.5749 4.6054 33.0766 0.00918472 -0.00172043 0.0405155 
532 2 42.3996 -0.947474 33.6096 -0.0124251 0.0314232 -0.0256918 
527 1 47.9314 -1.07125 35.1544 0.0295052 -0.00380505 -0.0257325 
507 1 46.2718 3.2153 33.7106 -0.0111724 -0.0080156 -0.0102569 
512 1 43.6033 0.798471 33.5889 -0.0135584 0.00660162 0.01555 
506 1 44.8354 1.45005 34.1671 0.00699366 0.00291643 -0.000161295 
508 1 45.7509 0.436973 33.8897 0.0104673 0.00558111 0.0352132 
510 1 47.048 0.912679 34.0558 -0.0134636 -0.0248498 0.00674291 
509 1 47.3495 2.28183 33.9743 0.0275872 -0.0156834 -0.0187894 
514 1 45.7323 -0.877695 34.2729 -0.0190858 -0.0186511 0.0242811 
523 1 44.4236 -1.7647 34.0308 0.0203393 -0.0154654 -0.0256681 
520 1 43.4033 -0.627148 33.9573 -0.0234155 -0.0156728 -0.00376951 
519 1 42.4359 1.53252 33.271 -0.0106127 -0.0236478 -0.00816241 
517 1 42.5677 2.93703 33.0135 0.0101369 -0.00974875 0.00612884 
511 1 43.8044 3.66239 33.1533 -0.0116391 -0.0207856 0.0100225 
505 1 44.9577 2.78186 33.813 -0.00618832 -0.019555 -0.00810224 
529 2 41.538 3.45249 32.5872 -0.0299092 0.00588829 -0.0942473 
518 1 44.2883 4.89989 32.5426 -0.0277006 -0.0198199 0.0443647 
516 1 48.1132 0.178411 34.6207 -0.00567489 -0.0179279 0.012422 
525 1 48.9426 3.98424 32.5455 -0.00576128 0.01385 -0.010465 
537 2 49.9918 4.26106 32.0932 0.0446618 0.0500274 0.0737887 
538 2 50.8314 1.93974 34.0962 -0.0552848 0.0467035 0.013614 
526 1 49.663 1.83698 33.8996 -0.0028988 -0.0306203 0.0228325 
528 1 49.4357 0.724686 34.5747 0.0095048 -0.0134059 -0.00123666 
540 2 50.2812 0.103256 34.9956 0.0139637 -0.0621366 -0.0751842 
515 1 48.6002 2.70821 33.3801 -0.00609862 -0.0228253 0.0100761 
522 1 47.8331 4.64524 32.2302 0.0256455 -0.00754233 0.00180024 
530 2 43.516 5.16157 31.7578 -0.0311269 -0.0803368 -0.0247977 
533 2 46.1867 6.12929 31.8784 -0.0712078 -0.0838264 -0.01188 
539 2 48.7645 -1.74162 35.5435 0.00913127 -0.052224 -0.0205077 
84 1 39.1602 16.7517 -9.20386 -0.0101064 0.0194729 0.0207813 
91 1 41.4878 19.7742 -11.1721 0.00951075 0.0121392 0.0298148 
76 1 41.4147 17.7027 -10.1286 0.00763008 -0.0119812 0.00747876 
78 1 40.5417 16.7055 -9.40084 -0.03008 0.0311448 -0.00446229 
82 1 40.6029 18.8549 -10.4727 -0.0112638 0.0414115 0.0086315 
96 1 38.2521 15.7907 -8.77006 -0.0153022 0.00852438 0.00167477 
92 1 39.1694 19.0022 -10.1636 0.00291532 0.0399089 -0.0065954 
104 2 38.3307 19.8606 -10.3614 0.062835 -0.0288949 -0.0551731 
95 1 38.5927 17.9493 -9.75078 -0.00213605 0.0261331 -0.0126376 
83 1 40.2735 14.3955 -8.73077 0.0144639 0.0244536 -0.0228432 
94 1 38.6616 14.5773 -8.50575 -0.00337587 0.0340699 -0.00492019 
576 2 59.0233 31.9449 11.3432 0.0297105 0.0322867 -0.071471 
108 2 37.3021 16.2356 -8.85282 -0.038511 -0.0173201 0.00694948 
107 2 37.6582 18.3617 -9.33184 0.0486938 0.00596702 -0.0607527 
80 1 43.2603 18.2349 -11.406 0.0225963 -0.00960708 0.00564807 
85 1 45.3785 16.5151 -11.3945 -0.00620742 0.0135499 0.034255 
98 2 46.0377 14.6507 -9.51518 -0.004422 -0.00570842 0.0151936 
86 1 45.0729 14.8359 -9.33614 -0.0177414 -0.000204443 -0.015988 
79 1 44.6058 15.7239 -10.2157 -0.0115214 -0.0290509 -0.00933133 
101 2 44.959 13.4985 -7.48959 -0.0202436 0.0240014 0.0413379 
74 1 42.6913 17.3269 -10.3022 0.0169477 -0.0151943 -0.0273987 
89 1 44.537 14.1708 -8.21965 -0.00680954 -0.0164078 -0.00961899 
75 1 42.3389 15.201 -9.01123 -0.00569385 0.00107397 -0.022579 
81 1 43.047 14.3826 -8.0145 -0.00120844 0.00669227 -0.00814465 
77 1 41.0442 15.4583 -9.03451 -0.0165281 0.00934659 -0.0309305 
73 1 43.2344 16.0522 -10.0556 0.00865644 -0.000764273 -0.0141487 
564 1 60.0352 31.4121 11.0807 0.0153905 -0.0286812 -0.0140191 
90 1 42.1741 13.1725 -7.78004 -0.0256379 0.0115804 -0.0388696 
93 1 40.7561 13.0992 -8.26637 -0.0371315 0.00115645 -0.0234132 
371 1 37.5957 26.6195 10.3746 -0.00760633 0.0086137 -0.00492542 
102 2 42.9601 12.7259 -7.16935 -0.0075605 0.0431842 -0.0170619 
382 1 39.105 26.6607 9.89072 -0.0349656 0.00607454 -0.00782772 
277 2 59.267 22.6724 1.67907 0.0219513 -0.0364748 0.0198676 
396 2 40.7742 25.6647 10.4248 -0.00868244 0.0356037 -0.0341637 
87 1 44.5885 17.5416 -11.8563 0.00316322 -0.00912212 0.00451272 
384 1 39.704 25.6888 10.7916 0.00749533 -0.0060979 0.0222424 
106 2 37.8201 14.008 -8.09014 -0.0149172 -0.0138135 -0.0303026 
393 2 37.5074 27.7182 8.80822 -0.00641298 0.0418466 0.0109153 
574 2 60.1173 29.314 12.0596 0.00367612 -0.035586 0.0734296 
365 1 37.1509 26.1846 11.7223 -0.0203913 0.0147566 0.00332263 
381 1 36.8053 27.5486 9.68125 -0.0116434 0.020548 -0.00225168 
394 2 39.7812 27.4473 9.21591 0.0213326 0.0650111 0.114843 
105 2 40.4846 12.1726 -8.59392 -0.0435216 0.00969748 -0.0348085 
279 2 60.0448 20.5995 -0.400549 0.0348627 -0.0653795 -0.00293736 
103 2 41.1973 20.7739 -10.8908 0.0479836 0.00704418 0.0756763 
97 2 46.5922 16.3942 -11.4523 0.0758762 0.0369399 0.0486832 
392 2 41.1941 24.531 14.5965 0.0342072 0.0860326 -0.0343154 
379 1 38.0999 24.0798 15.7435 -0.0159102 0.00814901 -0.0129732 
376 1 36.6298 24.2719 15.8311 0.00963244 0.0164843 -0.0303172 
383 1 40.2724 25.8488 13.1677 -0.00943008 0.0299671 -0.00451683 
370 1 38.6684 24.4802 14.531 -0.0119634 -0.00334543 -0.0108042 
380 1 40.064 24.8948 14.1818 -0.0102624 0.0259442 -0.00134277 
372 1 39.2874 25.4578 12.1778 -0.00613358 0.0157664 0.0150759 
388 2 36.3944 24.4231 16.9189 -0.0732125 0.0390109 0.0423179 
395 2 41.1736 26.3288 13.2087 -0.00398911 -0.0384089 0.0059341 
391 2 38.8244 23.9938 16.7356 -0.0149444 0.0377658 0.0407351 
100 2 42.7765 19.9663 35.1898 0.0104438 -0.068539 0.117093 
99 2 45.0503 18.0105 35.4064 0.0387961 -0.040778 0.0936814 
364 1 37.5242 24.7534 13.6025 -0.00897201 -0.00814689 -0.0304519 
366 1 38.0005 25.5959 12.6814 0.00655615 0.0299303 -0.0160416 
362 1 36.2856 24.1822 13.5734 0.0063779 0.0215134 -0.0313097 
88 1 42.4998 19.3627 35.9205 0.0199218 0.0325845 -0.0076903 
427 2 65.4865 6.55463 -7.73132 0.0274766 -0.0221618 -0.00124167 
428 2 66.7165 5.07988 -8.87501 -0.0298149 0.0207896 0.0262989 
431 2 69.5652 4.0729 -8.72801 0.0166292 -0.0704487 -0.0362478 
415 1 65.9048 7.15702 -8.46436 0.00247014 0.0160793 0.0102609 
406 1 67.346 6.79082 -8.85952 -0.0148971 0.0233782 0.0319739 
408 1 70.1586 5.76473 -9.80862 0.000287472 -0.0304793 0.0129793 
416 1 67.8344 5.41492 -8.93604 -0.0303541 0.0181905 0.0150883 
419 1 69.1581 4.94112 -9.16116 -0.003656 0.0202554 0.0166353 
423 2 65.2737 10.8495 -10.2881 0.0208028 -0.00059856 0.00996747 
411 1 66.3207 10.2537 -10.2684 0.0122899 0.0234054 0.00790101 
424 2 64.3669 8.95103 -8.66958 0.0325577 -0.0344038 0.0697596 
412 1 65.4758 8.43345 -8.87888 0.0197889 0.0214476 0.0117244 
430 2 73.1641 5.98583 -10.6448 0.00384055 -0.014588 -0.00667582 
418 1 72.0998 6.63991 -10.7659 0.00473073 0.0231548 0.00681736 
407 1 71.7104 7.60108 -11.8584 0.000709696 0.0122702 0.0103958 
397 1 68.3635 9.56231 -11.4893 -8.59808e-05 0.0193493 0.000152961 
420 1 71.4507 5.51461 -10.1333 0.00191665 -0.00687848 0.0161673 
127 1 69.917 0.275797 8.84475 -0.0160667 -0.00222518 0.0132593 
398 1 67.7047 8.60941 -10.468 0.013967 0.00369708 0.0301976 
400 1 68.3805 7.55635 -9.68 -0.0194643 0.022065 0.00995256 
404 1 66.4937 8.98535 -9.77573 -0.00253941 0.0270183 -0.00291124 
401 1 70.2611 7.80377 -11.4151 -0.0138282 0.0128266 -0.00328053 
409 1 66.7141 11.1979 -11.2646 -0.0158598 0.00366398 -0.000405123 
402 1 69.7298 7.28795 -10.1878 0.0105588 0.0110558 0.0154828 
139 2 70.1993 0.679678 7.85013 0.0156087 -0.0236988 -0.0274705 
140 2 69.9013 2.71519 7.83631 -0.0556228 -0.0148013 -0.0685097 
132 1 69.9512 5.19264 11.5982 0.0265485 0.00165929 -0.000830301 
432 2 71.573 4.63 -9.5753 0.0266005 -0.0409096 0.0672881 
120 1 70.3326 3.75903 11.1753 -0.0116151 0.0111007 0.00905898 
118 1 70.1683 1.51071 9.60332 -0.0358923 0.00393927 0.0032052 
123 1 70.5582 -2.30809 11.4969 -0.00382145 0.0113259 -0.0077481 
116 1 70.6509 -1.06828 10.8383 -0.0114789 -0.0103965 0.026204 
135 2 70.4752 -3.23547 10.9976 -0.0247441 0.0784178 -0.0198134 
124 1 70.0457 -1.02646 9.43406 -0.0262265 -0.0184386 0.0417561 
136 2 69.4592 -1.86396 8.83431 0.0406762 -0.00422999 0.0669909 
144 2 69.1408 5.80003 10.9776 -0.034474 0.0430768 -0.0842272 
128 1 70.0887 2.75891 8.84303 -0.012909 -0.000930716 0.00210936 
131 1 69.8583 3.80353 9.74024 0.0308618 -1.91259e-06 -0.00410104 
143 2 69.9209 4.70083 9.20155 -0.0482883 0.00707475 -0.021013 
110 1 70.6834 0.247361 11.5945 0.0044693 -0.00618034 0.0022547 
114 1 70.6727 2.65733 11.905 0.000940646 0.00492013 -0.00565014 
112 1 70.4984 1.54601 11.0935 -0.00666806 0.022749 0.0113844 
134 2 70.5711 -1.69044 15.7332 0.0874859 -0.10883 -0.0514963 
125 1 70.111 0.119724 15.924 0.0459178 0.00977653 0.00716588 
122 1 70.5002 -0.898917 15.0693 0.0218423 0.0215062 0.00858623 
137 2 70.3934 0.211678 16.9328 -0.0711657 -0.0515507 0.011813 
115 1 70.8995 -1.08047 13.6314 0.00874661 -0.000258343 -0.0241803 
133 2 70.9465 -3.12788 13.4176 -0.0237369 -0.0274227 -0.00995479 
126 1 69.5831 2.78503 15.8322 -0.0155359 -0.0141444 0.0210806 
141 2 68.8011 4.46294 15.3176 0.0692746 -0.0508908 0.0320386 
117 1 69.953 1.32898 15.124 0.0200977 0.00608231 0.00535463 
138 2 68.8888 2.88239 16.6589 0.00258859 -0.0291609 -0.0410913 
129 1 69.5336 3.84254 14.9338 0.0228823 -0.0141598 0.0215006 
142 2 69.3866 6.20177 13.0742 -0.0268897 -0.0497817 0.0752877 
119 1 70.0697 3.93449 13.657 -0.00650047 0.00263126 0.00281997 
130 1 70.0957 5.25193 13.023 -0.0178741 -0.00867782 -0.00168925 
111 1 70.6832 1.59238 13.9797 -0.00329223 -0.0015154 -0.0226867 
109 1 70.5346 0.294722 13.0679 -0.0128746 0.0169158 0.0359503 
113 1 70.6688 2.86368 13.292 -0.0136535 -0.00985125 0.0157488 
121 1 71.0274 -2.21526 12.8541 -0.00500974 0.012938 0.0149142 
405 1 70.1805 9.77906 34.7655 0.000254472 -0.00894127 0.0161721 
410 1 68.7392 11.6073 35.3825 -0.00847929 -0.00276938 0.00521314 
413 1 70.0102 11.188 35.1237 0.0136416 0.00418709 -0.0256116 
429 2 73.1794 8.34982 34.7471 -0.048997 -0.0880287 -0.0192097 
417 1 72.2324 8.49587 35.1678 -0.0207919 -0.0326481 -0.0223866 
414 1 71.5641 9.67576 34.6284 -0.0172762 -0.0159115 -0.00123093 
426 2 72.3238 10.2703 34.2836 -0.079592 -0.0295524 0.036658 