ITEM: TIMESTEP
930000
ITEM: NUMBER OF ATOMS
576
ITEM: BOX BOUNDS pp pp pp
-1.2000000000000000e+01 8.4000000000000000e+01
-1.2000000000000000e+01 3.6000000000000000e+01
-1.2000000000000000e+01 3.6000000000000000e+01
ITEM: ATOMS id type x y z vx vy vz 
83 1 -2.94194 -6.36346 -8.84704 -0.00106745 0.0144046 0.0128427 
78 1 -1.34035 -7.14947 -7.56005 0.00595858 0.0083489 -0.0166993 
102 2 -5.07876 -7.60423 -7.84167 -0.00186791 0.0592739 -0.0917539 
94 1 -3.95278 -7.26984 -8.05873 -0.00228451 -0.00577209 -0.0085893 
96 1 -3.6177 -8.32111 -7.2936 0.00174807 -0.00979111 -0.00621472 
84 1 -2.01475 -8.26917 -7.14444 0.0151008 0.00685496 -0.0086542 
103 2 3.02141 -5.89316 -3.684 -0.0203013 -0.00680215 -0.141333 
88 1 2.47974 -6.38902 -4.55011 -0.019855 -0.00649583 0.048566 
82 1 1.11628 -7.60278 -6.52646 -0.0180493 -0.0145628 -0.00692056 
91 1 2.08777 -6.80453 -5.77319 -0.000397217 -0.00891338 0.000842282 
76 1 0.16999 -7.00306 -7.48251 -2.69312e-05 0.0145146 0.00182633 
93 1 -3.84045 -5.21072 -9.05577 -0.0028644 0.00204015 -0.00359971 
81 1 -2.00751 -3.49597 -7.77374 -0.023748 0.0244913 0.0254806 
89 1 -1.42574 -2.33496 -7.39095 0.0169845 -0.00485109 -0.00547731 
90 1 -3.26426 -3.78558 -8.78539 -0.000189795 -0.0113398 -0.00711829 
86 1 -0.111593 -2.32455 -7.10913 0.0218756 -0.0229929 0.00268329 
75 1 -1.40422 -4.67343 -7.76269 -0.00612411 0.000544402 0.0033895 
77 1 -1.96546 -5.97817 -7.73273 0.00226037 0.00710231 0.0110952 
101 2 0.259852 -1.42052 -6.78242 0.0290307 -0.0203811 0.0775265 
79 1 0.773381 -3.51057 -7.07937 -0.00111379 0.0146388 -0.002181 
73 1 0.0891672 -4.57309 -7.71706 -0.0114583 -0.00483239 0.00987463 
355 2 1.90304 -6.00525 -8.17167 -0.100018 -0.0381975 -0.000717624 
74 1 0.853539 -5.78511 -7.88743 -0.00334935 0.00933039 0.0272308 
97 2 1.81155 -3.3052 -6.89394 0.0198744 -0.0509377 -0.10682 
33 2 -2.31228 -4.7367 6.27322 -0.0813818 0.030038 -0.013031 
106 2 -4.05028 -9.07461 -6.71509 -0.00268384 -0.0452769 -0.0222694 
107 2 -1.92722 -9.12993 -5.11832 0.0846336 -0.0822132 -0.0436097 
95 1 -1.29953 -8.54237 -5.95565 -0.0154697 -0.0163155 -0.00012421 
92 1 0.160279 -8.3934 -5.81695 -3.40146e-05 0.0180505 -0.0195016 
104 2 0.135926 -8.51206 -4.75102 -0.0992245 -0.0750283 0.0100289 
287 2 -2.46215 -4.13888 5.19163 -0.0220048 0.00048367 0.0224015 
532 2 -2.79903 -8.25277 29.6392 0.082746 -0.0862389 0.0211873 
357 2 -2.35185 6.93525 27.1871 -0.0113144 -0.0489804 -0.0595131 
238 1 -2.24042 6.30721 28.1497 0.0273339 0.00170767 0.00519285 
240 1 -1.45105 5.18057 28.6823 -0.0290212 0.0290171 0.0241829 
228 1 -0.31764 5.72987 29.4423 -0.0132064 0.00646314 0.000881392 
237 1 -3.98252 7.62499 29.2245 -0.00984771 0.0108881 0.0017922 
234 1 -4.14833 8.64358 30.2439 0.00633563 -0.0278986 0.00393739 
246 2 -5.06876 9.26354 29.663 -0.0987684 0.0160336 -0.0362737 
227 1 -2.72678 7.06098 29.3232 -0.00249974 0.00219417 0.0351289 
249 2 -4.44252 7.92075 28.3891 -0.00291097 -0.0621756 0.0132893 
252 2 -1.36352 4.09431 28.496 -0.0823061 0.0697802 -0.0374918 
235 1 2.40161 6.55836 32.7461 0.0103248 -0.00100171 0.0165681 
247 2 3.34697 6.01203 32.6831 -0.0479856 -0.0532173 -0.0511064 
226 1 1.40983 6.47342 31.7 -0.00524518 -0.0020628 -0.013123 
251 2 2.79525 5.94411 29.5634 0.0370404 -0.0216556 -0.010796 
239 1 2.0766 6.08505 30.432 0.012169 -0.00108426 -0.0315937 
236 1 0.959207 5.90517 29.7262 -0.0160078 0.0122535 -0.0101296 
221 1 -2.09005 7.12031 30.563 -0.0470593 0.019872 0.0236985 
225 1 -3.16642 9.08953 31.2973 0.0143641 0.0195364 0.0106044 
245 2 -3.30353 11.0708 30.9763 0.118467 -0.0823221 0.0283297 
231 1 0.136007 8.68555 34.9842 0.0105361 0.0106017 0.00499168 
218 1 -0.33007 7.5205 33.0133 0.00960548 0.0152915 -0.0246435 
219 1 -2.46468 7.84344 31.8554 -0.0109714 0.00147222 -0.0217668 
233 1 -2.89784 10.4175 31.7989 0.0187022 -0.0091835 0.0259264 
230 1 -2.19961 10.6413 33.0326 0.000118321 0.00733888 0.021941 
242 2 -2.21019 11.5488 33.5996 0.0469698 -0.0158551 -0.0478244 
466 2 3.0016 10.4143 20.4234 -0.039878 -0.0592745 -0.0286404 
241 2 -1.43512 9.66738 35.7931 -0.0655152 -0.0615046 0.0301825 
229 1 -0.922507 9.42725 34.8364 -0.0165099 0.0128314 0.00266685 
223 1 -1.56581 9.6555 33.5783 -0.00349477 -0.00308414 -0.0022335 
217 1 -1.64124 8.28371 32.8893 0.00467456 -0.0126016 0.0228931 
222 1 -0.873651 6.56887 30.6568 0.00898712 0.00770212 0.00533852 
244 2 2.96569 7.28298 34.7913 0.0298481 0.045615 0.0886849 
220 1 0.0235665 7.06672 31.6965 0.00431932 -0.00767231 -0.0262846 
224 1 0.985689 8.01545 33.8951 0.00707461 -0.0125508 0.00898415 
232 1 2.27786 7.32908 33.9101 -0.00526163 0.0416524 -0.0351634 
283 2 -2.00155 1.52612 31.3392 0.0320984 0.0279684 -0.125191 
278 2 -1.6542 1.74973 30.6533 0.00215178 -0.00161395 -0.0997112 
105 2 2.89893 9.7342 21.1582 0.0367261 -0.0601361 -0.00176069 
243 2 0.665938 8.18867 35.8365 0.0285578 -0.0201886 0.0105005 
286 2 -11.1885 31.4675 3.44594 0.0274003 0.00830927 0.0190624 
548 1 8.41097 26.8077 -11.654 -0.000834824 -0.027547 0.00724664 
274 1 -11.8264 32.076 2.98706 -0.0334158 0.0130646 -0.00482156 
567 2 8.84977 26.7603 -10.5821 -0.0118369 -0.0467424 -0.0254165 
276 1 -11.516 31.5493 1.70389 -0.0188859 0.0112544 -0.0156383 
288 2 -10.4155 31.7913 1.59746 -0.0353802 -0.001094 -0.0837702 
99 2 -5.59971 31.2831 19.9556 0.109675 -0.0390384 -0.0503513 
80 1 -7.49746 30.9816 18.32 -0.000736614 -0.00394094 0.0188548 
85 1 -8.6936 29.9892 17.9666 0.0122759 0.00886222 0.00920121 
100 2 -7.60325 31.8254 17.6641 -0.0156788 0.0160607 -0.0928748 
475 1 -9.78593 30.8573 18.102 -0.000221626 -0.0475851 0.00163472 
482 1 -10.789 30.2696 17.1154 0.00408202 0.00433044 0.000351945 
494 2 -10.0151 31.201 19.2977 0.0901465 -0.12002 -0.012819 
572 2 10.7977 27.7422 28.914 -0.0581667 0.0629041 0.0366964 
563 1 10.9391 27.224 29.9196 0.0062438 -0.0080322 0.00713002 
87 1 -6.59618 31.0283 19.3056 -0.00458096 0.0147407 0.00497483 
570 2 0.245664 16.0464 24.7909 0.034413 0.00481701 -0.0144401 
385 2 0.278006 16.4382 23.8449 -0.0135159 -0.0579901 -0.0903241 
566 2 7.43701 26.3023 29.0398 0.0603893 0.0279231 -0.0670275 
573 2 7.80904 28.9989 29.7083 -0.0329709 -0.0463126 -0.0698655 
561 1 7.04444 26.91 29.8484 -0.00717434 0.00581614 0.0245308 
177 2 9.96566 26.6111 30.2779 -0.0429617 0.0778928 0.0538855 
576 2 8.84608 32.5429 31.6783 0.0183045 0.0641713 0.0361067 
554 1 5.79134 24.247 33.7218 0.016493 0.0246685 0.00235401 
558 1 6.22903 25.9767 30.589 0.00588618 -0.0139869 -0.0157891 
549 1 5.96748 26.1502 31.9039 0.0111072 0.0164853 -0.00618086 
557 1 6.30036 25.3065 33.4197 0.0286349 0.00486961 -0.0318495 
547 1 6.73511 26.1239 34.66 -0.0210638 -0.0198214 0.0104236 
553 1 7.5763 25.7174 35.6941 0.0162461 0.00835248 0.0154493 
559 1 10.9921 28.7569 34.1268 0.0162639 0.0224704 -0.00106025 
569 2 5.34878 27.9358 32.9197 0.00129302 -0.0446394 0.0148086 
421 2 6.94609 32.0451 30.704 0.0592856 0.124969 -0.0290408 
551 1 7.28464 28.2269 30.1915 -0.00114677 0.00893502 -0.0179409 
544 1 8.70409 28.9049 33.363 -0.0186204 -0.0137195 0.016762 
541 1 6.88386 27.3353 33.8886 -0.0051268 -0.00823183 0.0326891 
543 1 6.15445 27.5092 32.2682 -0.00359885 0.0114581 -0.00512103 
542 1 8.00968 27.9009 34.2794 -0.020861 -0.0261284 0.0033874 
545 1 6.93594 28.5699 31.5131 -0.0226122 -0.00204206 -0.0176182 
546 1 8.086 29.4463 31.9958 -0.00641852 0.0246603 -0.00616779 
550 1 9.99725 29.2901 33.0845 0.000760177 -0.007713 -0.0334237 
555 1 8.79017 27.9061 35.5374 0.0234198 -0.026355 0.0165268 
552 1 11.0227 28.3463 30.7123 -0.0149603 -0.0097644 -0.00323112 
560 1 10.7483 29.0482 31.8238 -0.0016498 -0.00103096 -0.00988171 
564 1 8.33298 30.9134 31.8902 -0.0212314 0.0181195 -0.0182202 
562 1 7.95532 31.8995 31.2977 0.00110468 -0.022343 0.0198704 
556 1 10.2832 28.0994 35.2131 -0.00568286 0.00805689 -0.0186943 
501 2 -11.7227 31.6083 15.5645 -0.0264582 -0.0223707 0.010371 
565 2 8.15276 24.8123 36.1421 0.0885791 -0.000933428 0.088966 
568 2 11.0409 27.8233 35.9184 0.04779 -0.0469698 0.0704299 
110 1 34.3024 0.485 5.71894 -0.0114029 0.00557821 -0.00170619 
127 1 31.5807 0.085993 4.01296 -0.00301626 -0.015974 -0.0031315 
124 1 32.1626 0.058198 5.21892 0.0198645 -0.0150273 0.0140065 
128 1 33.0719 0.316199 1.91032 -0.00271389 0.00682381 0.0269722 
118 1 33.1937 0.222546 3.35397 0.0094106 0.00943031 -0.00140069 
140 2 32.0114 0.971504 1.92589 -0.00434325 0.0506962 0.105653 
112 1 34.2735 0.613235 4.10493 -0.00501929 0.0126573 -0.0033851 
131 1 34.0004 1.23354 1.41925 -0.0119308 -0.0010094 0.000355337 
345 1 21.576 -4.60338 10.6931 -0.0079681 -0.0404609 -0.0323989 
330 1 23.9072 -1.26838 10.7548 -0.00385871 -0.00479029 -0.0178596 
360 2 21.6772 -0.11424 8.6835 0.0134257 -0.0030052 0.000586194 
348 1 21.9346 -0.950253 9.36334 -0.0107175 0.0224103 0.0363731 
346 1 21.5758 -2.33453 9.374 0.00327101 -0.0111248 -0.0228918 
336 1 23.0597 -0.310234 10.1203 0.0103363 0.00332264 0.0215968 
358 2 20.897 -2.97039 8.68591 0.0146945 -0.0684699 0.0643694 
335 1 22.0563 -3.18494 10.5279 0.0256685 0.000332946 0.00910931 
329 1 23.3327 -2.68729 10.9287 0.00472095 -0.0111747 -0.0112089 
216 2 20.776 -5.14099 10.0522 0.0338868 0.0472918 -0.0669644 
143 2 33.7508 1.46307 0.228467 0.00186243 0.00354558 -0.0498445 
328 1 25.2041 -0.929861 11.4351 0.00643808 -0.0133101 0.0217675 
359 2 22.8125 1.4706 9.6072 -0.0352441 0.0512452 0.0919074 
109 1 35.5572 0.776941 6.48151 -0.0274628 -0.0105177 0.00457943 
347 1 23.506 1.01528 10.2737 -0.0108825 0.00873877 0.00159029 
354 2 22.0657 -6.55453 11.8074 0.0711693 -0.00785608 -0.00368686 
344 1 24.0031 1.35203 11.5384 -0.0119518 0.016122 0.00774018 
334 1 25.2067 0.553289 11.6995 0.0274959 0.025907 -0.00198605 
116 1 33.071 0.0281035 6.25131 0.0157134 0.00439052 0.00685385 
123 1 32.6782 -0.0253685 7.68432 -0.0093995 -0.00941686 -0.0160695 
496 2 32.9702 -0.853672 8.17585 -0.0201389 -0.00755437 -0.00648171 
121 1 31.9579 0.672518 8.68553 0.0181493 -0.0131082 0.00551838 
139 2 31.1165 1.47552 8.45481 -0.00688884 -0.121604 -0.0276546 
210 2 16.7427 -11.009 10.5656 -0.0193646 -0.0906171 0.0157631 
114 1 35.4671 1.32456 3.68576 -0.00624655 0.00455112 0.0302421 
284 2 16.0775 -10.8016 9.91813 0.0130617 -0.11012 -0.0555093 
120 1 35.2829 1.42889 2.03742 -0.0070702 -0.00863283 -0.0260124 
342 1 22.2808 -5.44876 11.4638 -0.00721005 -0.0239245 -0.00880138 
327 1 24.1194 -3.69563 11.526 -0.00463702 -0.00867592 0.0167981 
115 1 35.4374 -0.391461 7.68636 0.0093741 0.00969414 0.00855268 
326 1 26.1649 -1.86425 11.9444 0.0181952 0.009295 0.000728211 
333 1 23.606 -4.9201 11.9406 -0.00730133 0.00273907 -0.025473 
350 2 26.1701 -6.33864 13.5459 0.0125622 0.0376871 0.0066809 
434 1 31.473 -5.46714 30.7963 0.0107823 -0.024665 0.00467367 
433 1 31.2226 -4.31886 30.2052 0.0223085 -0.000739838 0.00992866 
27 2 35.4213 9.4341 18.046 0.0138608 0.036104 -0.0305434 
8 1 35.9294 10.1499 17.3778 -0.0152522 0.024936 0.00636145 
343 1 26.2388 1.29814 12.6085 -0.0223047 -0.0129577 0.0269238 
353 2 24.2925 -6.98638 12.3373 0.110152 -0.0318278 -0.0480513 
15 1 35.6453 11.1085 16.4894 0.00224594 0.00306031 -0.0161873 
341 1 24.5481 -5.93099 12.26 0.0162229 -0.0309714 0.00492037 
339 1 27.861 -2.40489 14.0563 -0.0124217 0.015332 0.0182941 
349 2 27.5542 -4.84012 14.3914 0.0153472 0.0187024 0.0913073 
337 1 27.3284 -3.66443 14.0006 -0.0214663 0.00617483 0.0224983 
331 1 26.1204 -4.18299 13.0543 0.0067749 -0.00914369 -0.0250572 
338 1 25.5166 -5.46746 13.2368 -0.00907374 -0.013508 -0.00169447 
325 1 25.5807 -3.30255 12.1217 0.0260549 0.00177642 -0.00738164 
332 1 27.0851 -1.40564 13.0271 0.00435305 -0.00933798 -0.00757373 
351 2 28.7271 -2.03699 14.6862 -0.0880755 0.0123429 -0.0552103 
340 1 26.813 -0.0196406 12.9825 -0.0126837 -0.0205746 -0.00702898 
356 2 24.0372 2.15377 12.2074 -0.0135957 0.0384914 -0.00145447 
445 1 33.6663 -3.56603 30.8128 -0.00158361 0.00484387 -0.00694857 
468 2 27.2595 -6.10032 31.978 -0.00489463 0.0171565 -0.071035 
456 1 27.5181 -6.23881 31.1058 0.0150711 0.00706067 0.0142228 
462 2 24.9066 -4.25446 31.2933 0.0413436 -0.0382531 0.00354029 
465 2 27.766 -6.04914 28.1843 -0.00685218 -0.1038 -0.0562598 
464 2 30.5255 -0.889269 28.8278 0.0794144 -0.0290704 0.0313314 
458 2 32.2538 -1.15905 30.3616 -0.0373773 -0.0222911 -0.0217243 
446 1 31.6951 -1.98753 29.8712 0.0271691 0.00254557 0.0220742 
449 1 30.4714 -1.98753 29.0215 -0.00370852 -0.00639093 -0.0187108 
467 2 30.6427 -9.49705 32.8372 0.0279876 -0.00951332 0.0520102 
455 1 28.9799 -8.50988 31.8907 -0.0175916 0.00626715 -0.00845088 
452 1 30.2411 -8.83188 32.131 -0.0155784 0.00974266 -0.0204755 
444 1 28.6341 -7.12166 31.1038 -0.0108388 0.0121721 -0.00487804 
438 1 29.3409 -6.54783 30.1776 0.000460738 -0.00293415 0.0123666 
436 1 30.587 -6.50907 31.0391 0.0148441 0.0227397 -0.00839547 
442 1 31.1286 -7.53913 31.702 0.00966888 0.0143683 0.0075276 
463 2 33.1818 -8.66067 32.4607 0.0312167 -0.0930824 -0.00347178 
451 1 32.4399 -7.802 32.2924 -0.0174788 0.0123653 -0.0128205 
448 1 33.1306 -6.69296 32.5498 0.010183 0.0180171 -0.0123246 
460 2 33.7495 -6.33548 33.4232 0.0351668 -0.0257234 -0.0472568 
450 1 24.8371 -4.9102 30.4669 0.0182859 -0.0159379 -0.0248844 
453 1 25.7381 -5.02377 29.2531 -0.000308959 -0.0292144 0.0038939 
443 1 26.8977 -5.83235 28.7043 -0.00291483 -0.0279488 -0.00510604 
441 1 29.6417 -3.04185 28.9273 0.0165893 -0.0255793 -0.0242243 
461 2 29.0601 -2.77339 28.0154 -0.0408511 0.0223349 -0.00159467 
435 1 30.0166 -4.32838 29.5499 0.00375833 0.0119147 0.00829189 
437 1 29.0604 -5.45651 29.4096 -0.0108478 -0.0137821 -0.0100126 
454 1 27.6594 -5.27246 29.939 0.00675372 0.000414034 0.00318042 
459 2 34.0127 -2.46194 31.3815 -0.0698979 0.0458758 0.032926 
457 2 34.7261 -5.67059 31.7878 -0.0507792 -0.0115987 -0.029803 
447 1 33.792 -5.00981 31.4294 0.00350343 0.0228601 -0.0150607 
439 1 32.2982 -3.25542 30.2439 0.0074189 0.000843496 -0.00296175 
440 1 32.6211 -5.54501 31.8586 0.0125791 -0.0118907 0.00506401 
13 1 35.881 11.8703 15.6669 -0.0424493 0.0172699 -0.020168 
203 1 28.7781 17.0035 -11.1586 0.010198 0.00661739 0.00586102 
187 1 34.3089 16.0568 -10.7583 -0.00288706 -0.0119378 0.00533114 
197 1 34.1179 14.0314 -11.8406 -1.26301e-05 0.00916184 -0.00388056 
194 1 35.1002 14.8868 -11.0845 0.0161517 0.0273038 -0.0108047 
205 2 34.9584 15.7311 -9.19402 0.0292396 0.107297 0.0318909 
193 1 35.1111 16.6348 -9.72034 0.00757472 0.0123615 -0.0128557 
195 1 34.256 17.4854 -8.96435 -0.0201718 -0.00512791 0.0104851 
432 2 26.3886 31.4146 -4.28226 0.0504919 0.00678595 0.0066232 
188 1 33.118 18.0591 -9.52984 -0.00746821 -0.0182788 -0.00224612 
182 1 32.3442 17.117 -9.89319 -0.0149228 0.0185094 -0.00062907 
181 1 32.9549 16.1082 -10.6482 0.0113752 0.00718231 -0.0246108 
184 1 30.9712 17.1524 -10.2308 0.0119346 -0.00335729 -0.0127782 
191 1 30.0018 13.859 -11.0317 -0.000327644 -0.00592756 -0.0040447 
189 1 32.6315 13.8979 -11.7592 -0.00813197 0.00081992 0.000412579 
183 1 32.1039 15.056 -10.9402 -0.00382763 -0.00517903 0.020071 
186 1 29.9664 16.302 -10.4375 -0.000421148 -0.022334 -0.00652692 
196 1 32.3054 18.8938 -8.49003 0.00329491 -0.00405383 0.00601855 
185 1 30.7521 15.0268 -10.6179 0.0137452 -0.00739367 0.00438857 
200 1 29.1368 18.536 -10.7917 -0.00428151 -0.00871591 -0.0217009 
215 2 29.1121 19.693 -11.0443 0.024052 0.0137449 0.0711135 
207 2 35.0884 17.9482 -8.33851 0.0578577 -0.00804775 -0.0314822 
211 2 30.9318 20.1514 -8.89877 0.0135362 -0.00163033 0.0359565 
199 1 31.4009 19.4532 -9.58469 -0.0109057 0.00598724 0.00742502 
190 1 30.5125 18.5181 -10.4514 -0.00264453 -0.0183153 0.0242802 
213 2 29.1062 14.0429 -10.8739 0.0238182 -0.0496871 0.0420228 
214 2 29.6597 12.0136 -11.1295 -0.0176182 -0.0571355 -0.0288275 
201 1 30.6319 12.5576 -10.8872 0.00298057 -0.00155645 0.0356381 
198 1 31.7837 12.7636 -11.8444 0.0115326 -0.00333649 0.000312453 
204 1 26.883 15.5104 35.2526 -0.0220035 -0.0106292 0.0340104 
209 2 34.5992 12.9977 35.6678 -0.0438778 0.010663 0.0181247 
497 2 32.2899 34.7535 26.8488 0.039462 0.00730135 -0.00183921 
212 2 27.0576 15.5135 34.1615 0.087619 -0.0305613 0.0210655 
202 1 25.8687 16.1161 35.4631 0.00906632 0.00550498 0.0106842 
144 2 15.8885 12.2523 12.1506 -0.0540521 -0.0686053 0.0636447 
571 2 12.063 28.6375 33.624 -0.0357217 0.0232283 0.0212051 
133 2 32.2822 12.2685 35.509 -0.0300874 0.0674284 0.0706521 
394 2 15.4459 12.3459 12.8758 0.121195 0.0869607 -0.0699099 
192 1 27.9099 16.4801 35.9427 0.0119644 -0.00500095 -0.0167526 
98 2 51.4639 9.46256 -2.40564 0.0316624 0.0477366 0.0103971 
111 1 36.675 1.52283 5.97388 -0.0532478 -0.00269516 0.0209111 
141 2 39.1007 2.83994 3.64243 -0.135462 -0.068638 0.0269952 
142 2 38.2186 2.27684 1.70875 -0.0911804 0.00649658 0.0131692 
130 1 37.4271 1.75401 2.27002 0.00949136 -0.00171846 0.00129358 
119 1 37.6162 1.7607 3.6445 -0.0036734 0.00314955 -0.0086505 
113 1 36.5751 1.37793 4.41271 -0.0187674 0.00138814 0.00236596 
137 2 38.7448 -0.937661 6.481 -0.0295322 -0.00934279 -0.0434247 
126 1 39.0134 1.94942 5.64992 -0.00634986 -0.0187013 0.0081458 
134 2 36.6129 -2.2857 7.88015 0.0285518 0.0313112 0.0166425 
132 1 36.3866 1.77229 1.45275 -0.00407571 -0.0241593 0.00502791 
129 1 38.6717 2.28402 4.44743 -0.00536929 0.0284959 -0.0398432 
125 1 37.8247 -0.404972 6.97783 -0.0215965 0.0350296 -0.0263862 
504 2 52.711 -4.71592 10.9963 0.0656853 -0.0441901 0.0283194 
122 1 36.5958 -1.12997 7.53631 -0.025249 0.00914662 -0.0316356 
138 2 40.0208 2.17284 6.14405 -0.0722575 -0.0456294 0.0234637 
117 1 37.9138 0.958215 6.30803 -0.0334894 -0.0102233 -0.0387309 
71 2 53.2308 -5.23257 11.461 0.0585507 -0.0446788 -0.0728061 
524 1 58.1053 10.6035 26.9749 0.0105339 0.00867956 0.0143491 
35 2 40.1697 11.025 25.0326 -0.0154855 -0.0867948 0.0371359 
536 2 56.2644 10.5676 28.101 -0.0122605 -0.0463488 0.0427967 
7 1 37.033 10.4416 18.2769 -0.0111851 -0.00332783 0.0205128 
23 1 39.739 11.5733 24.1761 -0.00346501 0.00856421 -0.00540799 
514 1 59.4099 10.6694 26.1584 -0.0159437 -0.00184598 0.00888719 
1 1 37.7512 10.6147 19.5874 -0.0085352 0.0305729 0.0132705 
28 2 36.5515 8.84735 20.5183 0.0371596 -0.0262159 0.0498796 
16 1 37.5202 9.35442 20.2554 0.0176828 0.00645253 0.0212598 
527 1 57.0876 11.0369 27.509 0.0034985 -0.0128879 0.0132393 
31 2 36.5874 9.26248 22.0379 0.00218404 -0.0355019 -0.0527077 
19 1 37.1386 10.1045 21.634 -0.0131424 0.0156846 -0.0128122 
4 1 38.9747 11.899 21.3053 -0.0104296 0.00424165 0.0151709 
10 1 37.9958 11.0278 22.2059 -0.0122365 0.00141096 -0.00977947 
32 2 38.1948 10.2401 24.652 -0.130052 0.0319647 0.0983199 
20 1 38.5579 11.1194 23.574 0.0112428 -0.0308464 0.0301413 
208 2 36.3391 16.9061 -9.91625 0.0399217 0.119171 0.0164485 
206 2 36.0647 14.5936 -10.3435 -0.0395972 -0.0292612 -0.0721446 
26 2 39.1063 16.668 18.9927 -0.0381 -0.0272875 -0.0125098 
64 2 57.0412 35.6822 29.0737 -0.00284481 0.199763 -0.106246 
68 2 57.3512 31.1821 19.4388 -0.05583 -0.0579997 -0.0912958 
67 2 44.8962 20.6552 18.1187 -0.040058 -0.10034 -0.043466 
18 1 39.2267 15.9871 19.9067 -0.00303998 -0.025283 -0.00298964 
6 1 39.1214 12.9779 22.1437 -0.0159144 -0.0127048 0.0348162 
9 1 38.9347 14.5459 19.967 -0.0319866 0.0264303 0.0319906 
11 1 40.2779 15.2603 21.9795 0.00881606 0.00867364 0.0116214 
30 2 40.7997 17.1161 21.3493 0.00149557 0.0411155 0.0189642 
21 1 40.0014 16.3795 21.0562 0.0110944 -0.00244385 -0.00841413 
34 2 40.9483 16.0061 23.8835 -0.0312209 0.0183823 -0.000170647 
22 1 40.7613 15.0708 23.4539 0.00663251 0.0103558 -0.00838838 
5 1 39.4416 14.2459 21.274 -0.0134391 -0.0146735 0.0108084 
24 1 40.3709 14.0999 24.2366 0.010552 0.0180425 0.00473089 
12 1 39.7931 12.9329 23.4204 0.0206872 0.0158243 -0.00468913 
3 1 38.2729 13.2077 19.092 0.0165958 0.0136614 0.0167284 
63 2 41.5971 22.6936 20.2147 -0.0367764 -0.0316501 0.0321956 
55 1 44.6815 20.9934 19.0205 -0.0176109 -0.00292699 0.019392 
52 1 43.6045 21.6737 19.6673 -0.0061599 0.0289689 0.000244293 
59 1 47.1525 21.6603 19.1388 -0.023426 -0.000240439 0.00689791 
46 1 45.8308 21.5614 19.6547 -0.00795516 -0.0157447 0.00188039 
51 1 42.7146 22.4273 20.251 -0.0036527 0.0186354 -0.0351545 
40 1 45.789 21.9104 21.2283 -0.00655957 0.00621161 -0.0114703 
44 1 43.2482 22.6108 21.6008 0.0328358 0.0135835 0.00639125 
42 1 47.1575 22.0695 21.7869 -0.000334387 -0.011935 0.00515687 
38 1 44.7249 22.2695 21.9609 -0.0067896 -0.0112551 -0.0159309 
49 1 42.3412 22.9125 22.8357 0.00452765 -0.0123555 -0.0181038 
41 1 47.2288 22.8357 22.9579 -0.00646972 -0.021742 0.0128958 
43 1 43.2403 22.7885 23.8591 -0.0183012 -0.000256044 0.0117509 
37 1 44.5941 22.6368 23.4138 -0.0184495 -0.0130449 0.00871572 
39 1 46.0584 22.9595 23.8386 0.0245775 -0.0230181 -0.00773904 
56 1 48.4398 21.2418 19.7044 0.0117855 0.00533189 0.00843206 
48 1 48.4954 21.6967 21.0778 -0.0156693 -0.00389943 0.0171859 
60 1 49.7315 21.3617 22.0053 0.00391768 -0.00158927 -0.0368984 
54 1 49.6417 21.978 23.2574 0.0193177 -0.0106002 0.0219189 
58 1 48.4851 22.7865 23.7759 0.0220801 0.0357942 0.0151879 
70 2 50.3302 20.429 22.0196 0.00532295 0.0701765 0.0046718 
72 2 49.329 21.4462 19.3818 0.0375216 -0.0150563 0.0915293 
176 2 50.412 29.9539 18.2666 0.0141724 -0.0238719 0.0672531 
248 2 50.9843 29.5264 17.7654 0.00247614 0.0433195 -0.0969208 
36 2 40.0214 13.7326 25.2679 -0.12358 0.097324 0.0341385 
170 2 56.6087 36.1304 29.8742 0.0345117 0.0822958 0.0215029 
509 1 59.745 13.807 28.4338 0.00379759 0.00820326 -0.0233369 
528 1 57.0547 13.3513 28.55 0.00179714 0.00405556 -0.0116607 
515 1 59.1374 14.5544 29.4085 -0.00814145 0.0195925 0.0104347 
510 1 59.1088 12.6485 27.6793 0.0240083 0.000830436 -0.00709256 
516 1 57.717 12.5991 27.7681 -0.000969118 0.00808756 -0.0145126 
45 1 46.5685 22.8012 25.1981 0.0165511 0.0169385 -0.00907159 
50 1 42.4782 22.4999 25.2912 0.00564123 -0.0103313 -0.00302669 
65 2 45.9973 22.2695 26.0206 0.0871644 -0.0271566 0.0321774 
62 2 41.4843 22.4551 27.0084 -0.0229171 -0.0216384 0.0622751 
57 1 48.0521 22.7134 25.3371 0.00790634 0.0138947 0.00623481 
66 2 48.7842 23.1268 26.8856 -0.0192564 -0.00451453 0.0144341 
61 2 43.1481 23.8322 26.621 -0.0648572 -0.0180384 -0.0183523 
53 1 42.5392 22.8724 26.4986 -0.00361938 0.00597518 0.00697406 
69 2 50.4384 22.1176 23.9393 -0.0752227 0.00711858 -0.0372863 
47 1 48.8617 22.1641 26.4498 -0.00643137 0.00163557 0.0163174 
538 2 56.74 14.4949 30.0511 0.00734484 0.0578889 0.0160259 
526 1 57.6108 14.062 29.5943 -0.0235154 -0.00905105 -0.00212284 
508 1 59.9246 11.9933 26.607 0.0193214 -0.011971 -0.00839512 
525 1 59.7064 15.8249 29.5899 -0.00423767 0.018252 -0.0287295 
534 2 58.9834 16.7369 29.8847 -0.00999992 0.0349914 -0.105213 
25 2 36.4996 12.3011 14.7727 0.0595682 -0.0850578 -0.0104936 
2 1 38.3266 12.0606 19.9532 -0.0245599 -0.00396757 -0.0362224 
486 1 74.8289 -11.3582 14.4817 0.0198119 0.0108029 0.0016148 
402 1 73.4091 11.2674 32.2125 0.041128 0.00475347 0.0101265 
426 2 74.4336 11.3698 32.5022 0.049473 -0.0416114 -0.0714306 
523 1 60.3687 9.64497 26.1264 0.00045037 0.00943486 -0.0175447 
401 1 71.5934 11.9219 32.9742 0.0119657 -0.00236942 -0.00369693 
431 2 69.4132 7.67887 28.9808 -0.0133954 -0.0962889 0.0508513 
540 2 75.8448 2.41436 32.8988 0.0264245 -0.0192409 0.0153291 
537 2 75.4632 2.17975 32.4126 0.0636382 -0.0385257 -0.0173904 
519 1 63.6331 11.3616 27.2497 0.0192929 -0.011135 -0.00916 
512 1 62.2069 11.081 27.2652 0.0041304 -0.00497108 0.0138112 
314 2 77.3273 -12.143 16.6493 -0.110175 -0.0884191 0.0222975 
535 2 62.5935 9.56905 25.9634 -0.0224214 -0.00046625 0.0327826 
531 2 64.4047 10.4136 26.808 -0.0700378 -0.054455 -0.039993 
520 1 61.7989 10.1822 26.3754 0.0111473 0.000148769 -0.00807213 
400 1 73.3927 10.7161 30.6785 0.015033 0.0108154 0.00195537 
424 2 70.3948 11.1005 27.8113 0.0570866 0.0324038 0.0176418 
412 1 71.476 10.8428 28.0205 0.00468708 0.0410579 -0.0245457 
419 1 70.5427 7.41591 29.0621 0.0155506 -0.00720696 -0.00040118 
416 1 71.2676 8.58122 29.1144 0.00663244 -0.00587671 -0.0067442 
406 1 71.864 9.66269 28.9413 -0.000811101 -0.0292141 0.0159948 
428 2 71.1145 6.78438 29.7378 0.0778484 -0.0538088 0.0939402 
415 1 73.2168 10.0227 29.6184 0.00847766 -0.000353658 0.0244257 
29 2 77.0705 10.1131 24.9966 -0.0249518 0.0262562 0.0602709 
404 1 72.9726 11.2649 27.6816 -0.00970956 -0.0047786 -5.16397e-05 
398 1 73.9801 10.4318 28.2781 -0.00690781 -0.00543422 -0.0319721 
397 1 75.4271 10.1848 26.7478 -0.00267116 0.00390582 -0.000376236 
14 1 80.2291 10.3123 27.7204 -0.00972573 -0.0202902 -0.0229661 
489 1 75.7642 -11.5829 14.948 -0.0157739 -0.00188308 -0.0206943 
17 1 74.9231 9.48723 27.7671 0.0309025 -0.00101181 -0.0202765 
425 2 75.283 8.44245 28.0487 -0.0661732 0.0927074 0.103937 
423 2 75.7152 11.7846 25.6439 0.0528519 0.074904 -0.00835004 
409 1 74.884 11.425 26.2193 0.00110204 0.00206335 0.0159225 
413 1 77.8864 10.6909 26.9988 -0.00310735 0.0220134 0.00687875 
403 1 76.872 10.3019 26.1231 -0.007254 0.0270644 -0.0175862 
410 1 79.135 10.6334 27.5917 0.0321371 0.0233842 0.0118025 
422 2 81.3028 10.1379 27.9046 0.0111211 0.0238739 -0.0116827 
279 2 76.835 34.0118 -2.42368 0.0406934 0.0176194 -0.0155549 
268 1 79.5419 33.7982 -2.48459 -0.00499979 -0.0184175 -0.0186643 
260 1 78.6219 33.7999 -1.5504 -0.0100743 0.00818151 0.012257 
267 1 77.2418 33.9061 -1.48702 0.00153516 -0.0156666 0.015652 
271 1 80.8494 33.7378 -2.74622 0.0166433 -0.0121639 -0.00307405 
280 2 81.6865 34.15 -3.28014 -0.0330098 0.0599159 0.0151366 
262 1 81.6378 33.209 -1.59264 -0.0212762 -0.00650776 -0.0209034 
256 1 81.0617 33.0261 -0.235855 -0.0118685 0.00591971 -0.000825187 
254 1 79.6064 33.1979 -0.366887 -0.030578 0.00499048 -0.0431624 
272 1 82.8669 32.5786 -1.82115 0.0157818 -0.0105746 -0.0244037 
386 2 73.6236 19.2951 4.11553 -0.0536862 -0.036746 -0.0734521 
387 2 72.5583 21.424 2.47202 0.0348115 0.077308 0.0547385 
374 1 73.6053 20.0327 4.85334 -0.0175755 0.00380637 0.00731806 
373 1 72.6911 21.8393 3.48223 0.00122549 0.0235134 0.0120165 
375 1 72.2603 23.1794 3.01331 -0.025411 0.0107114 -0.0138245 
367 1 73.4045 21.5841 4.7184 -0.000244371 -0.018333 -0.00851438 
388 2 71.8131 23.5824 1.9647 0.0741401 -0.0666471 -0.0161499 
368 1 73.0187 24.1352 3.77562 -0.00494565 -0.00173373 -0.0141695 
361 1 74.2369 22.6337 5.32853 -0.0091703 0.0110399 0.000645219 
362 1 73.3921 23.8984 5.19668 0.000358323 -0.024383 -0.00149321 
391 2 71.8508 27.3334 4.40098 -0.0353308 0.0121537 -0.0288907 
376 1 72.3615 25.432 3.6815 0.00671133 0.00930058 0.00871998 
379 1 72.5202 26.4046 4.35756 0.0196304 -0.014491 -0.00561252 
370 1 73.7194 26.4063 5.42707 -0.00400422 -0.0173815 -0.00136498 
364 1 73.6862 25.1261 5.96205 0.00564639 -0.00252433 0.0256778 
277 2 76.1583 34.5415 0.00259682 0.0565389 0.0757675 0.00770423 
265 1 76.993 33.9252 0.0641233 0.00990287 0.00858408 0.0136868 
281 2 76.1834 33.6303 2.71824 0.0837529 -0.0104357 -0.0311205 
266 1 77.3583 33.6163 2.57161 0.015051 0.017253 0.0280666 
269 1 78.3386 33.4982 3.64932 -0.0109806 -0.00198103 -0.0255638 
285 2 79.8618 32.8263 5.48787 -0.0658204 0.0510338 -0.0179875 
270 1 80.5257 32.8418 4.40488 0.00669157 -0.0301578 -0.00453351 
259 1 77.8509 33.687 1.25731 0.0362064 0.0112118 0.0174708 
257 1 81.5882 32.2332 1.92262 -0.0164515 0.0142712 -0.013526 
263 1 82.515 32.198 3.10307 0.0070213 -0.0264583 0.00469308 
273 1 81.9358 32.5684 4.45889 -0.00376499 -0.0312461 -0.0132125 
255 1 80.2408 32.6054 2.0845 -0.035213 0.0166892 -0.0282159 
258 1 82.0856 32.6691 0.60568 0.0179605 0.0145126 -0.000666935 
261 1 79.6327 32.8262 3.30431 0.0397048 0.00855037 0.00291216 
253 1 79.2227 32.9589 0.973394 0.00984837 0.0173979 0.0269033 
396 2 75.4358 25.6895 10.2852 0.0252525 0.0942528 -0.0308102 
575 2 82.3882 33.052 5.26782 0.00365585 -0.0144071 0.000701084 
264 1 83.651 32.5267 0.720505 -0.0152284 -0.0178864 -0.00122608 
384 1 74.7467 25.1579 9.50992 -0.0248521 -0.0346489 0.031093 
574 2 68.8154 17.5405 2.93405 0.0215765 -0.0883279 0.0295181 
352 2 68.1 18.063 3.11747 0.0986752 0.113677 -0.119544 
389 2 75.1476 19.1406 6.01496 -0.00445094 0.147468 0.0973244 
377 1 74.129 19.6052 6.06975 0.0122586 -0.00947745 -0.0199849 
495 2 74.2616 19.7193 8.395 0.0566398 0.000885236 0.0777283 
369 1 73.9632 20.9334 7.09859 -0.000367098 0.0050889 0.0170173 
378 1 73.8272 20.577 8.52877 -0.00570536 0.00072264 0.00504683 
363 1 74.2242 22.3431 6.71574 0.00248156 0.0202522 0.0217473 
381 1 73.8728 21.4848 9.80109 0.0420264 0.00685895 -0.00307422 
371 1 74.0423 22.7552 9.11497 -0.0151308 0.0161509 -0.0285162 
393 2 73.4754 21.4073 10.8082 -0.0576596 -0.0263844 -0.0680527 
365 1 74.1683 23.4355 7.8242 0.0167471 -0.000317934 0.000955711 
395 2 73.7653 28.154 5.30258 -0.00428952 0.00489323 -0.0700974 
380 1 73.5175 27.5495 6.25638 -0.0229276 0.0250517 0.00907601 
382 1 74.0789 24.0361 10.0355 -0.00436876 -0.0182969 0.000316155 
372 1 74.2567 25.8627 8.21005 -0.00623593 0.0125581 -0.0116484 
383 1 74.2517 27.2663 7.50661 -0.0155319 -0.0374847 0.00381244 
164 1 74.0805 23.8875 11.4922 0.0238713 0.00374994 -0.0226966 
392 2 74.966 28.0686 8.13218 0.0281599 0.082749 0.0293265 
366 1 73.5471 24.5923 7.41425 0.00111829 -0.00762479 0.00362769 
275 1 83.9161 32.5944 -0.661106 -0.00788081 -0.0072826 0.00718935 
160 1 75.7155 23.2909 16.792 -0.021912 -0.02214 -0.0109877 
163 1 76.5937 23.0338 17.8436 0.00958591 0.0174744 -0.0102628 
175 2 73.7716 24.7128 14.5606 0.0283506 -0.0756234 0.148259 
152 1 74.2712 23.6192 17.1091 -0.0109009 -0.0204524 -0.00655234 
169 2 73.0547 22.4027 17.9779 0.0108938 0.00127962 -0.0441781 
172 2 78.6696 22.9648 18.1241 0.00596708 -0.0657865 -0.0783747 
166 1 75.1254 25.9687 13.0399 -0.0269256 0.0264914 -0.00126117 
154 1 74.7612 25.548 14.2817 0.0108332 0.00598875 -0.00899172 
150 1 76.0425 27.0527 15.6035 0.0156443 -0.00629668 -0.00223514 
148 1 75.2107 25.7952 15.5591 -0.00639296 0.0106894 0.00642931 
156 1 76.792 27.7017 14.2798 -0.0335853 0.00278064 -0.00698895 
168 1 76.4137 27.0448 13.1519 -0.000740893 0.00752917 0.0146601 
146 1 74.8036 24.8716 16.8308 0.012609 -0.000851125 0.0148844 
149 1 76.8623 27.0783 16.6938 0.0201986 -0.0116478 -0.00253344 
499 2 75.7648 29.8099 16.412 -0.0159176 -0.0258351 0.116461 
155 1 77.7736 28.0062 17.0759 0.000319012 -0.02466 -0.0124769 
484 1 77.9293 29.4557 16.8562 0.00810025 -0.00403404 0.0246953 