ITEM: TIMESTEP
240000
ITEM: NUMBER OF ATOMS
576
ITEM: BOX BOUNDS pp pp pp
-1.2000000000000000e+01 8.4000000000000000e+01
-1.2000000000000000e+01 3.6000000000000000e+01
-1.2000000000000000e+01 3.6000000000000000e+01
ITEM: ATOMS id type x y z vx vy vz 
270 1 -3.64138 -0.20392 -3.30836 -0.0130469 0.00685509 -0.0105709 
281 2 -5.41434 -2.46912 -3.26896 -0.0431864 0.0335141 -0.0619064 
261 1 -3.69831 -1.26031 -2.30025 -0.0110143 -0.0114603 0.0244244 
269 1 -4.61604 -2.53949 -2.42225 0.0055102 -0.001839 -0.0164856 
266 1 -4.31212 -3.37765 -1.51636 -0.0283967 -0.0209397 -0.00721461 
259 1 -3.42782 -3.18595 -0.223754 0.00734001 0.00459929 0.0315916 
253 1 -2.43669 -2.1148 -0.277771 -0.0110066 0.00189191 0.0272588 
278 2 -4.96347 -4.44652 -1.28001 0.0874003 0.0553207 0.0698837 
255 1 -2.7355 -1.07765 -1.31255 -0.00413555 0.0216365 0.0133883 
285 2 -2.98899 1.88509 -4.10311 0.00730863 0.00613861 -0.0197854 
273 1 -3.17423 0.949805 -3.60218 -0.0126776 -0.0296694 -0.00642519 
257 1 -2.0362 0.208592 -1.34978 -0.0181011 -0.018112 0.0118925 
263 1 -2.54146 1.29462 -2.22711 -0.0112739 0.0136538 0.0190055 
264 1 -0.809483 1.74978 0.109939 -0.0208268 -0.00165438 0.0134118 
276 1 -1.77091 2.70327 -0.298356 -0.00820761 -0.0203183 0.0126313 
258 1 -1.07969 0.465836 -0.286859 -0.00552882 0.00148805 0.0081913 
274 1 -2.38833 2.5113 -1.61967 0.0171349 0.0241022 -0.00552952 
286 2 -2.77829 3.55263 -1.90658 0.047669 -0.0344674 0.00917608 
288 2 -1.72186 3.49612 0.326348 0.0376425 0.0643782 -0.0196065 
265 1 -3.55365 -3.50813 1.1042 0.0143995 0.00432077 -0.00156176 
277 2 -4.4417 -4.30552 1.20627 0.0143255 0.0541997 -0.0798711 
254 1 -1.80999 -1.76555 0.924338 0.0196095 -0.00600841 -0.0177383 
260 1 -2.78281 -1.34267 1.90279 -0.0143101 0.0168301 0.0243602 
267 1 -4.05247 -2.18958 1.72959 0.00378863 -0.00140893 0.00686312 
279 2 -5.12057 -1.93119 1.77735 0.0422123 0.031217 -0.0535975 
268 1 -2.47999 -0.520194 3.1159 -0.00242619 -0.0126281 0.00836443 
280 2 -2.61319 -1.02115 4.01809 0.0234897 -0.0796734 -0.0772289 
256 1 -1.00336 -0.577064 0.724559 -0.00601968 -0.014047 0.0318614 
287 2 1.08068 2.51949 0.348506 0.0637653 -0.0217611 0.014137 
271 1 -1.22702 0.186857 3.25496 0.00816947 0.0014246 0.00363373 
283 2 -1.09017 0.883562 4.08535 -0.00360407 -0.097396 0.0413523 
275 1 0.329953 2.20977 1.11027 0.0412307 0.0121071 -0.0100703 
262 1 -0.654638 0.132841 1.84929 -0.00430724 0.00798912 0.00504941 
272 1 0.646581 1.06006 1.83253 0.00579451 -0.022721 0.00205895 
284 2 1.72973 0.879698 2.01583 -0.118536 0.00940567 -0.0509737 
108 2 6.59316 6.34264 8.75693 0.0276588 0.0251944 -0.0511554 
105 2 7.97697 -5.74133 32.9992 0.00585513 -0.0281957 -0.00109755 
537 2 -6.58239 19.2915 16.7303 0.000167932 -0.0496444 -0.0662959 
540 2 -6.59865 19.8699 16.4348 -0.0763739 0.147508 0.0602194 
59 1 -7.49722 18.5793 23.2883 -0.0128327 -0.00607877 0.0146169 
68 2 -7.21445 17.4776 22.8651 0.0380538 0.0304023 0.0243443 
56 1 -6.84005 19.1345 24.1724 -0.0200864 0.00563895 0.00119897 
67 2 -3.53937 18.8471 23.9357 -0.0866895 -0.0673277 0.0841402 
208 2 3.99884 29.3109 23.7179 -0.0832057 -0.113503 -0.0180063 
211 2 5.77845 29.5297 21.51 -0.0400706 0.0522194 -0.0228558 
199 1 5.85041 30.2738 22.2741 -0.00770755 -0.0190956 0.0168726 
196 1 4.83936 30.1187 23.364 -0.00473699 0.00639656 0.0254005 
212 2 8.96899 30.2689 20.7364 -0.00211351 -0.0481535 -0.0564085 
200 1 8.28111 30.9586 21.2661 -0.00980092 0.0259764 0.0105347 
190 1 7.20551 30.839 22.395 0.00802532 0.0242907 -0.0261973 
203 1 8.77426 32.3365 21.4271 -0.00297781 0.0129007 0.010275 
215 2 8.98026 33.1586 20.6043 -0.0163284 0.0141095 -0.0123928 
192 1 9.25005 32.5909 22.8939 -0.00922703 -0.0267114 0.00452755 
184 1 7.1309 31.603 23.5383 0.00378958 0.0112658 -0.0137006 
186 1 8.1171 32.3565 23.6987 -0.0150195 0.00357453 -0.00203442 
204 1 10.6706 32.1922 23.2995 0.012344 0.000365285 -0.00204547 
64 2 -3.38756 16.5467 25.2087 -0.0143632 -0.055479 0.0378192 
63 2 -3.4131 16.5559 28.4095 -0.00892055 0.019434 0.00170455 
51 1 -3.62793 17.8233 28.2314 0.0097849 0.0359257 0.0118324 
72 2 -8.23631 21.0279 25.2197 0.0589484 0.0453444 0.018197 
48 1 -7.47783 21.6605 25.8356 -0.00228045 -0.0243202 -0.0212113 
60 1 -7.56058 23.2523 25.9606 -0.00745074 0.016488 -0.0129808 
58 1 -7.3112 24.0969 27.0447 -0.0199958 -0.000837849 0.00429824 
39 1 -4.92473 21.5018 28.2211 -0.0167575 0.000436758 0.00389533 
41 1 -5.52318 22.2615 27.2929 0.0240576 -0.00581097 -0.00253198 
38 1 -5.01609 19.4816 26.994 -0.0113702 -0.00893954 -0.00521527 
37 1 -4.6151 20.158 28.2784 0.0164367 -0.0420131 0.012024 
40 1 -5.75209 19.9465 26.001 0.00717823 0.0127119 0.00235968 
52 1 -3.95173 17.6012 25.4601 -0.0061174 0.00165628 0.00992775 
44 1 -4.31914 18.1322 26.9508 -0.0356131 -0.00242063 -0.00242515 
46 1 -5.75176 19.0268 24.7429 -0.00744936 -0.0180184 -0.00489029 
55 1 -4.33316 18.6902 24.5965 0.00679449 -0.00428819 -0.0237784 
42 1 -6.08103 21.4219 26.1643 0.00725691 -0.0337462 0.0204987 
43 1 -3.66646 19.8331 29.0763 -0.0151811 -0.0273503 -0.011511 
47 1 -6.14713 23.4178 27.6175 -0.0026504 -0.00446501 -0.0289779 
49 1 -3.28987 18.4578 29.3656 -0.0056196 -0.0111072 0.0339296 
45 1 -4.14507 22.6655 29.0707 -0.0110647 -0.003303 0.00174574 
61 2 -2.84949 18.1138 30.3003 0.011188 -0.0667319 -0.0115298 
54 1 -4.88743 23.6491 29.7345 -0.0156606 -0.0144205 -0.0132779 
70 2 -7.74636 24.9523 27.5729 0.0432689 0.0292634 0.0441175 
57 1 -5.90493 24.1996 28.8286 -0.00638394 -0.00636859 -0.010894 
69 2 -6.32656 25.111 28.9095 -0.0156783 0.0277765 -0.0187886 
207 2 2.89273 30.2936 26.0518 -0.0274955 -0.0195173 0.133226 
195 1 4.1039 30.5832 25.9995 0.00728178 0.0117646 0.0220105 
193 1 5.02876 30.8069 27.0526 -0.000230976 0.0131155 -0.0307286 
205 2 4.81474 30.2706 27.9026 0.0591487 0.00302245 -0.0417116 
206 2 6.25092 31.6373 29.1971 0.0914036 0.0264022 0.041765 
188 1 4.98363 30.6817 24.7071 -0.0256604 0.00563896 0.000194278 
187 1 5.92139 31.987 27.0269 0.015862 0.0009092 -0.0170125 
194 1 6.53735 32.4387 28.3355 -0.0122578 -0.0491459 0.00348761 
185 1 8.40643 32.7111 25.0711 -0.00266885 0.0216783 -0.0451936 
191 1 9.72965 32.7983 25.3442 -0.015111 0.0214259 -0.0191608 
182 1 6.03238 31.4671 24.5059 0.00411683 -0.00261364 0.00390012 
183 1 7.34887 33.1741 25.9718 0.00162869 0.000654268 0.00114653 
181 1 6.30655 32.3139 25.6469 0.013865 0.00310327 -0.0134586 
189 1 7.63786 34.0381 27.1342 0.00598891 -0.00584631 0.00818923 
197 1 7.27464 33.6262 28.5217 -0.010966 0.00603058 -0.0048634 
209 2 7.6217 34.0199 29.4877 -0.0383351 0.0316131 -0.0287719 
198 1 8.91308 34.6339 26.6592 -0.00498846 -0.00543746 -0.00447078 
201 1 9.91396 33.5807 26.5243 -0.0122571 -0.00127065 -0.00863067 
210 2 9.63931 35.5894 26.3493 -0.0862045 -0.0339245 0.025135 
202 1 10.8545 31.978 24.7352 -0.006554 0.0323672 0.0181992 
213 2 10.9535 33.6508 26.3171 0.0180622 -0.0235744 -0.0772011 
50 1 -2.59723 20.8337 29.5159 -0.0245667 0.0316096 -0.015208 
62 2 -1.60891 20.5792 29.3622 -0.0660717 0.0113819 -0.0447914 
53 1 -2.73956 22.0908 29.2517 -0.0177175 -0.00245259 0.00286035 
65 2 -1.80041 22.6445 28.9971 -0.0167451 0.0875125 -0.0269572 
66 2 -4.56706 23.7694 30.645 -0.0332344 0.0713927 -0.0372381 
214 2 11.2852 31.0658 24.9128 0.0704969 0.0259921 0.0974903 
570 2 20.7831 7.48226 3.93189 -0.0104581 -0.0403562 0.0291474 
569 2 19.3403 9.77349 2.54451 -0.0995432 -0.0333083 -0.0358324 
573 2 23.0433 7.15319 4.16663 -0.0119883 -0.0221789 -0.066024 
546 1 24.1241 11.6702 4.61506 -0.0128016 0.0223356 -0.00945512 
545 1 23.2518 10.7513 4.43148 -0.00330403 0.0284125 -0.00329598 
543 1 21.7791 10.9048 4.24111 0.0110911 -0.00726237 -0.00215419 
564 1 25.8219 9.74637 5.47506 0.0235154 -0.0263904 -0.0508586 
549 1 20.8054 9.8016 4.43592 -0.0263008 0.0104903 -0.0291608 
576 2 26.9932 9.71014 5.22031 0.023476 -0.125678 0.0224186 
554 1 19.3551 11.7191 3.06386 0.0204455 0.017129 0.0163442 
566 2 18.2817 11.4966 3.25887 0.0957329 0.0955017 0.0931603 
557 1 19.9984 10.348 3.33224 0.0174862 0.019336 -0.00232435 
558 1 21.2099 8.42457 4.23651 0.00755154 0.00204026 0.0447514 
561 1 22.6455 8.12893 4.29067 0.00766095 0.00709089 -0.010631 
551 1 23.5201 9.27325 4.69362 -0.0117455 0.0189979 0.000784912 
574 2 24.7675 7.78106 4.93967 -0.00205288 -0.00334269 0.00210861 
562 1 24.9321 8.79213 5.04819 0.0105582 -0.0110542 -0.00981944 
552 1 25.4159 11.1642 5.08884 -0.0194055 0.0254097 -0.0258827 
575 2 27.0108 11.6764 6.31789 -0.0840449 -0.0334072 0.0386322 
447 1 25.4718 -0.488374 17.1109 0.0123936 0.00867713 0.0124709 
459 2 25.2015 -1.51153 17.4798 0.00872743 -0.0623182 -0.0853408 
457 2 24.5363 0.523676 15.2939 0.0224948 0.0989637 0.129257 
445 1 25.198 0.437402 16.08 0.00218391 -0.00257569 -0.0197066 
440 1 26.201 -0.157769 18.3632 0.00226232 -0.00451308 0.00035862 
439 1 26.5212 1.27765 15.6834 0.0115759 -0.017546 -0.0136343 
434 1 27.3822 0.397169 18.0046 0.0033007 -0.0120175 0.0235508 
433 1 27.2983 1.26026 16.7518 -0.0156626 0.015718 -0.00785747 
446 1 26.0495 2.33058 14.7516 0.00338649 -0.0237653 -0.0300922 
435 1 28.4199 2.19048 16.4063 0.00240457 -0.00296621 -0.0183414 
438 1 29.6166 1.59405 18.5693 -0.003323 0.00320591 -0.00464758 
441 1 28.4444 3.14818 15.1914 0.00367147 0.0112144 0.00913188 
437 1 29.5396 2.4159 17.2721 0.0201786 0.02447 0.00346885 
450 1 29.7307 3.33036 14.3853 -0.020929 -0.00191905 -0.000732123 
449 1 27.0721 3.09925 14.6173 0.0260603 -0.02541 0.0265519 
462 2 29.5703 3.64547 13.2555 0.0279621 -0.0934598 -0.0346146 
458 2 25.0784 2.31402 14.5373 0.0832939 -0.00135326 0.0322556 
461 2 26.9021 4.03817 14.136 0.000870711 -0.0650961 -0.0368571 
443 1 30.6926 2.99237 16.7536 0.0150928 -0.00515904 -0.00721343 
453 1 30.8474 3.41449 15.3814 0.01364 0.0115227 -0.00366182 
454 1 31.8131 2.83008 17.8876 0.0241766 0.0105786 -0.00951414 
465 2 31.4624 4.1812 14.7844 -0.06751 -0.077183 -0.113073 
466 2 32.3757 3.77015 17.7636 -0.0131291 0.0243211 -0.0308869 
460 2 24.4096 -0.289509 20.1279 -0.0570362 -0.0736671 -0.0062669 
448 1 25.6786 -0.146414 19.7841 -0.00141339 -0.00997355 0.0160789 
451 1 26.767 0.0511662 20.7876 -0.0018256 -0.0162594 0.0114851 
463 2 26.2207 0.835672 21.1384 0.0527502 0.0480232 0.0255949 
464 2 29.2513 -1.4761 21.1117 0.0236205 -0.033051 0.0247378 
442 1 28.0659 0.117474 20.0762 0.00183414 0.0147206 0.0149617 
452 1 29.1821 -0.359131 20.9024 0.0217969 0.0136357 0.0141799 
455 1 30.5382 0.0656129 20.371 0.0292131 -0.00474437 0.0256557 
467 2 31.2807 -0.136891 21.0987 -0.00672607 0.0219166 0.0762647 
436 1 28.4301 0.882249 18.9014 -0.00176729 0.00222525 0.0064902 
456 1 31.9735 2.15856 19.2191 -0.00662491 0.00696136 -0.00701471 
468 2 32.7301 2.12382 20.1309 -0.0321403 0.0753593 0.0969854 
444 1 30.7662 1.02842 19.348 0.0339968 -0.0143034 0.0155652 
71 2 24.0684 7.21808 17.5654 -0.1161 0.0379902 0.0201041 
410 1 28.7033 17.8828 -9.36732 0.00275504 -0.00910853 0.04958 
422 2 28.323 17.1748 -8.83818 -0.110967 0.0285306 0.0428936 
412 1 34.321 17.0337 -10.2164 -0.00532639 -0.024883 -0.00937555 
403 1 30.2732 18.0021 -9.24893 -0.0101965 -0.00350268 0.0169365 
411 1 32.127 16.5529 -8.85008 -0.00558513 0.0263687 0.0289902 
423 2 32.6241 15.4958 -8.65257 0.00982476 0.0504629 0.00110077 
404 1 32.982 17.4477 -9.70024 -0.0106354 0.0310192 0.0259377 
409 1 30.7621 16.8341 -8.62556 -0.016916 -0.0308671 0.0187512 
424 2 34.6961 15.9989 -10.1564 -0.0719322 0.0452098 -0.0290288 
421 2 29.9053 16.4421 -8.20922 0.0273032 -0.0282674 -0.0127869 
425 2 27.9 20.1453 -8.73704 -0.00938038 -0.0393844 -0.0272638 
413 1 28.4148 19.2486 -9.46038 -0.011758 0.0224303 -0.00775409 
417 1 29.8035 22.8926 -9.919 0.0271483 -0.000107834 0.0166924 
429 2 29.4076 24.0692 -9.47174 -0.0278426 -0.0129726 -0.0643163 
426 2 28.0892 22.6546 -10.1657 0.0565557 -0.0152364 -0.0517822 
414 1 28.8889 21.8981 -10.0613 -0.00110729 -0.00577438 -0.00910601 
405 1 29.2707 20.5258 -9.92476 -3.82936e-05 -0.00466468 0.0275638 
418 1 32.0919 23.7369 -10.5558 0.013027 0.0244122 -0.0008969 
407 1 31.2092 22.5077 -10.2416 -0.0142679 -0.0291318 -0.0132124 
399 1 30.6497 20.3026 -10.0443 -0.00910603 0.0240733 0.0172376 
402 1 32.4885 20.9018 -11.3777 0.0212856 -0.0354957 -0.00377913 
401 1 31.4902 21.0874 -10.2494 0.00754144 0.0220833 0.0192656 
397 1 31.1632 18.8016 -9.87736 -0.0128516 0.0110684 -0.0312115 
398 1 32.3911 18.4815 -10.4266 -0.001777 -0.0138186 -0.0148768 
400 1 32.806 19.5901 -11.1198 0.0100491 -0.000529934 0.00366164 
408 1 33.3605 22.0895 -11.9781 -0.00404822 -0.00523517 0.00151227 
420 1 33.1145 23.4356 -11.5701 1.15525e-05 -0.00166907 -0.021117 
406 1 34.1551 19.1162 -11.6079 -0.00625008 -0.00130597 -0.00773532 
430 2 31.6801 24.7066 -10.5368 0.0748712 0.101949 0.0587593 
553 1 19.829 14.1802 4.11279 -0.00279545 0.000852772 0.022785 
542 1 22.2099 13.3895 5.03414 0.00756078 0.0155347 0.0209582 
548 1 21.7278 14.8033 5.34912 -0.00293618 -0.0116362 0.0148331 
568 2 21.9873 16.7398 5.06428 0.0036187 0.0370845 -0.0718921 
556 1 22.4947 15.7371 5.31332 0.0298873 -0.00554229 -0.00275921 
555 1 20.2033 15.0864 5.06159 0.00828381 7.6956e-05 0.00527255 
567 2 19.5502 16.0218 4.75341 -0.00306317 0.031041 -0.0705137 
544 1 23.6207 13.2479 4.7119 0.00542644 0.0312589 0.00681395 
559 1 23.9842 15.5205 5.2066 0.012446 0.0194866 0.0045094 
565 2 18.8761 14.2818 3.55355 0.022313 0.0598609 0.0765224 
550 1 24.5825 14.1752 5.00046 -0.020548 -0.00539843 0.00380121 
571 2 24.5676 16.3698 4.89564 0.0198728 0.0362299 0.0107466 
560 1 25.4268 13.5393 6.03101 -0.00178474 -0.0226349 0.00614714 
572 2 25.882 14.271 6.67344 -0.00203212 -0.0795639 0.043118 
563 1 26.1281 12.2253 5.83318 0.000796454 0.0138013 0.00306937 
415 1 35.0173 17.9619 -11.022 -0.000899981 0.00375189 0.0117129 
547 1 20.2588 12.7517 3.54507 -0.00243695 0.00475095 0.00586792 
541 1 21.4489 12.3381 4.30375 -0.0318092 -0.00683138 0.0106001 
177 2 22.4359 34.5125 28.1437 0.0505428 0.0447199 -0.00829296 
416 1 34.6381 20.0686 35.3082 0.00616791 0.00204708 -0.00460152 
428 2 35.5985 20.0303 34.8006 0.0336081 0.0194932 0.110434 
431 2 34.8575 22.3178 34.466 -0.0561277 -0.04516 0.0322532 
419 1 34.2688 21.519 35.2173 -0.00331375 -0.00446232 0.0257074 
432 2 33.7346 24.1145 35.9776 -0.0290593 -0.0603069 0.0633817 
237 1 37.3904 6.40711 -10.511 0.0274613 0.0455029 0.0128457 
249 2 36.4218 6.93667 -10.381 -0.0171965 0.0328102 -0.0380168 
234 1 37.1405 5.59183 -11.5111 0.00802427 0.00917931 0.0113444 
28 2 52.9342 5.90795 -8.40423 0.106622 0.00924653 0.0335675 
13 1 52.9843 2.40495 -11.1362 0.00297026 0.0107265 0.0026413 
15 1 52.9743 3.5512 -10.2716 0.0219116 0.0150286 0.00553189 
27 2 52.294 3.38334 -9.45677 -0.0182364 -0.0109927 0.00934255 
8 1 53.5102 4.92 -10.4873 0.00131932 0.00649028 -0.0348012 
25 2 52.2976 1.3861 -10.5442 0.0420942 0.0503573 0.0500972 
20 1 56.3459 7.81247 -10.4803 0.0218316 0.0259097 0.0108544 
16 1 53.6416 5.82882 -9.17706 0.0154922 -0.011033 0.0499829 
32 2 56.5382 8.41418 -9.54375 0.0286166 -0.0706213 0.00780981 
2 1 53.996 4.9813 -11.8665 0.00294855 0.00488232 0.0207767 
4 1 55.3238 5.6776 -11.3734 -0.00122995 -0.00399285 0.0183906 
250 2 37.9585 8.10199 -8.68341 -0.0361284 0.079853 -0.0107685 
238 1 38.6905 7.92647 -9.42734 -0.00392272 0.0330601 0.00785307 
221 1 39.8501 6.52212 -10.773 0.00392047 0.0100765 -0.020595 
227 1 38.6561 6.6499 -10.0693 -0.010178 -0.00710041 -0.000763569 
252 2 40.071 9.27947 -8.6115 0.00289744 -0.0114769 0.0477375 
240 1 39.9624 8.53153 -9.27378 -0.0145944 -0.00960013 -0.0221773 
228 1 41.1291 8.38218 -10.077 -0.0089833 0.0244974 0.0155158 
222 1 41.1415 7.0837 -10.7357 0.0202857 0.00456919 -0.00337718 
239 1 42.0582 9.46711 -10.0664 0.00715224 -0.0207952 -0.0077586 
220 1 42.1839 7.14277 -11.74 -0.0357968 0.0141843 0.0094269 
251 2 41.8978 10.3026 -9.43373 0.01699 0.0184109 0.085342 
10 1 55.4333 6.69933 -10.3333 -0.013439 0.00347538 -0.00910187 
236 1 43.1903 9.09826 -10.9514 0.00629641 0.0104411 -0.0131766 
226 1 43.4818 7.87361 -11.7482 -0.00919972 -0.0187623 -0.00632482 
248 2 44.3741 9.33139 -11.189 0.0734439 0.0385317 0.041299 
216 2 53.4983 -8.89691 -1.80335 -0.0617172 0.00460483 -0.0222028 
31 2 54.3832 7.30835 -8.08758 0.043381 -0.0652214 0.0909688 
19 1 54.78 6.6323 -9.11191 -0.0131797 -0.0375021 -0.00820463 
23 1 57.0992 8.10009 -11.8013 0.00162272 0.00610205 0.0230986 
219 1 39.6337 5.9354 -11.9436 -0.00309483 -0.000681488 -0.00330043 
246 2 35.887 5.49552 -11.7878 -0.0122111 -0.0410537 0.0221657 
502 2 59.1893 5.54958 28.4545 0.0563554 -0.075512 0.00124988 
282 2 42.6733 6.67304 22.7158 0.0101109 -0.0630108 -0.0320554 
24 1 58.3801 6.79565 34.5889 -0.00113592 0.0142466 -0.0116483 
233 1 38.5103 4.56186 34.5578 0.00902634 -0.00104276 0.0121366 
245 2 38.3217 3.50931 34.9021 0.00302602 0.0284671 -0.0394427 
225 1 38.4774 5.39404 35.8894 0.0224662 -0.000775735 -0.00237714 
35 2 56.6107 9.07547 35.8197 0.09011 0.0729347 0.0582788 
230 1 38.7441 5.24586 33.2969 -0.0350276 0.00327688 -0.0208958 
242 2 37.8584 5.95678 33.2659 0.123757 0.0134563 0.0212465 
223 1 40.2378 5.59905 33.5165 0.00363185 0.00915743 0.0144464 
229 1 41.1398 5.20727 32.6122 -0.00440508 -0.00151175 -0.00979787 
217 1 40.4021 5.98894 34.877 -0.0216362 -0.0120503 -0.00565299 
14 1 53.4747 1.57691 34.6263 0.0233848 0.0182838 -0.0106195 
26 2 53.3936 0.540696 34.169 0.0329368 -0.0928226 0.0095067 
1 1 54.0952 3.8759 35.2258 -0.00411758 0.018122 0.00243985 
29 2 54.616 1.43635 33.0179 -0.00909539 -0.083987 -0.0334284 
498 2 58.9792 2.78452 27.6601 -0.0465234 -0.0759339 -0.0382548 
18 1 57.2215 2.40308 33.5702 -0.00363974 -0.011163 0.0106431 
33 2 58.744 2.98266 32.5318 0.0286334 -0.0239101 -0.0334359 
5 1 56.6476 4.75023 34.6262 -0.0106072 -0.000206114 -0.00182225 
21 1 57.9527 3.29143 33.1425 0.0148369 0.0172613 -0.00013027 
11 1 57.3601 4.7854 33.4537 -0.0175616 0.0101646 0.0128957 
9 1 55.8268 2.52078 34.0831 0.0116099 -0.00483107 -0.000410152 
36 2 59.1965 7.38471 34.3669 -0.108467 0.00659521 -0.0363726 
30 2 57.5327 1.50898 33.3291 -0.0540018 0.0516078 -0.0240122 
22 1 58.0717 6.08411 33.3276 0.0130255 -0.0272018 -0.0251294 
3 1 55.4434 3.79022 34.564 -0.00518863 0.00640175 -0.00523776 
34 2 58.7705 6.19359 32.7046 -0.0215288 -0.0404805 0.0681652 
17 1 54.4792 1.86936 33.7809 -0.002417 -0.0103533 -0.0347258 
241 2 41.1149 4.69091 31.5997 0.0964623 -0.0235483 0.114224 
218 1 41.8606 6.45443 35.0672 0.0186343 -0.0254176 0.00668513 
243 2 43.0928 5.491 32.0062 -0.0039669 -0.00310433 0.146807 
231 1 42.4974 5.42545 32.9119 0.0118588 0.00311391 0.00711021 
224 1 42.9104 6.09699 34.1365 0.0231072 -0.0145695 0.0116205 
232 1 44.0834 6.99741 33.8596 -0.0222372 0.0228386 -0.0195714 
244 2 44.663 6.73612 32.9994 -0.106162 -0.103591 -0.0283604 
12 1 57.6361 6.87063 35.8626 -0.00797813 -0.00670471 0.00366566 
235 1 44.3734 7.82147 35.0053 -0.00140409 0.00397943 -0.0328734 
247 2 44.9596 8.6999 34.4284 0.0151373 -0.093951 -0.0474519 
6 1 56.5058 5.78627 35.6809 -0.00837398 0.0164761 -0.00582078 
7 1 53.3767 2.67325 35.4414 -0.0101659 -0.00281428 -0.00364417 
530 2 39.3789 27.671 -9.15936 0.0232646 0.0623878 -0.0217652 
511 1 40.7404 28.3112 -10.6447 -0.00426791 -0.0264242 -0.00617734 
529 2 38.8175 28.7889 -10.6182 0.0457298 0.00522768 -0.00794005 
517 1 39.5448 28.9442 -11.2416 0.0278585 0.0177429 -0.0257018 
518 1 40.4783 27.698 -9.35904 -0.00555382 0.0105644 0.0189009 
505 1 42.1119 28.8837 -11.0793 0.00875461 0.0155432 0.0143037 
533 2 41.8088 27.4377 -7.53059 -0.0646112 0.00415088 0.00695912 
513 1 42.9812 28.7163 -8.81107 -0.0380701 0.00205173 -0.0293663 
522 1 44.1998 28.3851 -8.25727 0.026062 0.00780312 0.0126469 
525 1 45.5458 28.0813 -9.04973 -0.0108706 -0.0112975 0.00714536 
521 1 41.5766 27.6823 -8.54006 0.00649128 0.00650664 0.00601747 
507 1 43.2136 29.0921 -10.2186 0.00213019 0.00477703 0.0080451 
515 1 45.7958 28.9431 -10.174 0.0173942 -0.0152299 0.0146406 
509 1 44.4166 29.2042 -10.8851 -0.00117303 0.00877945 -0.00465127 
534 2 46.6313 28.0308 -8.85761 -0.000750694 -0.0869726 -0.0100244 
526 1 47.1169 29.1377 -11.0357 -0.000968151 -0.0028154 0.0258728 
538 2 48.3022 29.171 -10.7775 -0.0349135 0.0395018 0.0646668 
320 2 42.2938 29.3356 -6.82547 -0.0261999 0.0941952 -0.047022 
311 1 44.2507 30.4096 -6.42638 -0.0285964 -0.00528479 -0.0118675 
323 2 44.0646 30.8843 -7.38466 -0.00246664 0.0159671 0.022834 
324 2 46.1693 32.643 -6.41961 0.0162838 -0.0131043 0.0246027 
316 2 42.8978 25.2048 -3.75309 0.0501665 -0.0327602 0.009323 
307 1 43.1167 27.2112 -4.77173 0.00380432 -0.00932143 -0.0341846 
308 1 43.4377 29.3029 -6.13401 -0.0269882 0.000376301 -0.0133157 
319 2 42.4507 26.8586 -5.84548 0.0655097 -0.0366371 0.0172249 
304 1 43.519 26.2087 -3.90274 -0.0112858 -0.0210347 0.00810984 
298 1 43.9296 28.4764 -5.15384 -0.0217802 -0.00632989 -0.016015 
294 1 45.8377 29.7535 -4.60869 -0.00299366 0.0340026 0.000159347 
292 1 45.1495 28.6167 -4.30547 -0.0270471 0.0054387 0.00586426 
296 1 44.5397 26.6204 -2.78813 0.0153607 0.0359799 0.00457564 
290 1 45.346 27.6912 -3.27963 -0.000208388 0.00880972 -0.0211188 
293 1 47.0788 29.8866 -4.19039 0.0180499 -0.00411078 0.0108894 
303 1 45.3202 25.7016 -1.83523 0.0198671 -0.0171536 0.0104274 
289 1 46.8001 27.7081 -3.31254 0.0205974 0.0254882 -0.015876 
291 1 47.5066 29.0102 -3.25408 0.0151858 0.0183739 0.00486919 
315 2 44.8213 25.8714 -0.860594 -0.00695626 0.108833 -0.140159 
295 1 47.4004 26.5939 -2.90123 0.00892507 -0.0179316 0.00120607 
302 1 48.8849 26.6025 -2.68706 0.00978587 -0.00596603 -0.0142537 
301 1 46.5224 25.185 -2.62008 0.0137184 -0.00953091 -0.0240631 
297 1 48.7249 29.0124 -2.55516 -0.0171353 0.0086257 0.00437988 
318 2 49.5349 30.6103 -1.38547 -0.115833 -0.0222152 -0.100055 
306 1 48.9478 30.5046 -2.2626 0.0015529 -0.00988972 0.000769067 
305 1 49.4044 27.7909 -2.81733 0.00884857 -0.0180763 -0.00102471 
317 2 50.3181 28.2273 -2.88486 0.0725345 0.0411129 -0.110655 
300 1 45.7186 30.5144 -5.96411 0.000679962 -0.00193269 -0.0233834 
312 1 46.4222 31.7599 -6.22007 0.000853434 0.0107995 -0.0129732 
310 1 47.7789 31.7691 -5.55162 -0.0338608 0.0267923 -0.0398381 
299 1 48.053 30.9657 -4.46114 0.00621365 0.00636054 0.00999662 
309 1 48.7231 31.5027 -3.26704 0.0103792 -0.0112978 -0.0224043 
321 2 49.6234 32.0755 -3.79708 0.0225399 0.0155271 0.112686 
322 2 48.4808 32.5507 -5.34647 0.00129239 -0.0301292 -0.0100561 
313 2 46.8563 24.53 -1.6296 0.00166935 -0.0760674 0.0538634 
314 2 49.4988 25.838 -3.29375 0.0401122 0.0502976 -0.0200515 
169 2 58.1476 14.1084 5.52751 0.0501706 -0.0281909 0.0472086 
146 1 59.726 14.3415 8.26391 0.00929158 -0.00449776 -0.0323289 
160 1 57.1702 14.0698 8.3172 0.00518916 0.0224924 -0.00819151 
175 2 56.0162 14.7332 10.4505 0.0426005 0.0212149 0.0327432 
164 1 58.0643 15.0863 11.898 -0.014412 0.00180999 0.0261768 
163 1 57.0541 14.4551 9.68447 -0.0189487 -0.00488886 -0.0063294 
154 1 58.1908 14.693 10.4862 -0.0137809 0.011414 0.00894262 
159 1 58.7518 13.6562 6.15772 -0.0220699 0.0123628 0.0143124 
148 1 59.4507 14.5137 9.67178 0.0119494 0.0169927 0.000736872 
152 1 58.4909 13.8805 7.70547 0.00337292 0.0309884 0.0228536 
172 2 56.4586 13.5376 7.88596 -0.0608152 0.039393 0.0805057 
157 1 59.8249 13.0346 5.75497 0.00494919 -0.0146265 -6.40806e-05 
427 2 35.9668 17.2969 -11.2057 -0.0209106 -0.136603 0.0629687 
179 2 59.1835 29.4082 18.879 0.0687628 0.0028314 -0.00633915 
536 2 44.231 28.9766 31.5609 0.0635511 0.038374 -0.0679171 
176 2 59.0342 15.7893 13.5957 -0.0197688 0.00984101 -0.0544346 
524 1 44.4482 29.1759 32.5883 -0.00256462 0.00294263 -0.00116568 
520 1 41.0138 28.1313 33.6049 0.000303295 -0.00439299 0.00352549 
519 1 39.367 29.3675 35.3993 0.0262883 -0.00668283 0.0137739 
512 1 40.7431 28.7762 34.9377 -0.0293809 0.0303218 0.0151781 
531 2 38.3554 29.3047 34.8392 0.0154672 -0.00962554 0.00840274 
506 1 41.9537 29.3585 35.525 0.00924056 -0.00649933 0.00279832 
532 2 40.027 27.8802 33.0781 0.0677415 -0.0852712 -0.0335915 
535 2 41.8575 27.9109 31.6678 -0.0134648 0.019668 0.0397423 
523 1 42.1929 28.2026 32.78 -0.0240944 -0.0217567 -0.0179992 
508 1 43.2035 29.3401 34.913 -4.01977e-05 0.0114465 0.00887323 
510 1 44.4827 29.2823 35.6467 0.0140687 -0.0138088 -0.0258623 
514 1 43.1782 28.9045 33.5105 0.0118221 -0.00796152 -0.0168417 
516 1 45.5472 29.4109 34.804 -0.0171368 -0.0108014 0.00718386 
539 2 46.1542 29.3211 32.4863 0.120701 -0.0141305 -0.00935128 
527 1 45.6243 29.59 33.2344 0.00181301 -0.0251333 0.00801591 
528 1 46.8556 29.2438 35.5304 0.00622084 -0.00184693 -0.000587753 
167 1 59.3009 15.6877 12.5578 -0.0115131 -0.00833122 0.0095374 
107 2 59.8168 15.9886 35.8402 0.0376759 -0.0581982 0.0670289 
104 2 59.6453 17.9471 35.9262 -0.0487554 -0.0836273 0.0240131 
134 2 76.1396 -10.7127 -10.9643 0.0123626 -0.028177 -0.00272117 
162 1 63.5385 11.8888 10.0623 -0.00198498 -0.0170772 -0.0132805 
125 1 76.2073 -8.5665 -11.2456 -0.00859596 0.00377987 0.00564119 
174 2 63.9612 10.8212 10.196 0.00777048 -0.0213044 0.0445073 
170 2 62.2793 11.0489 5.55995 -0.0702381 -0.0885419 -0.0314936 
137 2 75.3929 -8.39059 -10.4443 -0.035471 0.0569575 0.0279252 
158 1 62.1221 11.6242 6.50076 0.00462297 0.00632119 0.0209519 
122 1 76.4436 -9.87417 -11.7157 0.00301107 -0.00761105 0.0357541 
161 1 63.1831 11.8062 7.39659 -0.00537086 -0.00601523 -0.0175926 
133 2 78.5754 -11.9937 -11.3971 0.0390683 0.0385637 -0.00278427 
173 2 64.0375 11.2607 7.17917 -0.0199668 -0.0911181 0.109669 
391 2 65.1063 -8.48403 27.8615 -0.0691521 -0.0266464 0.00242629 
380 1 62.9343 -9.5745 29.1258 -0.00524951 -0.0156156 -0.0395935 
392 2 62.9075 -8.44943 29.4175 -0.0296696 -0.0214446 -0.0490426 
387 2 68.6546 -9.9018 30.3073 -0.00859902 0.0306979 -0.0194204 
132 1 77.6179 -6.25624 30.6388 0.00831309 -0.0118264 0.0371388 
128 1 80.9488 -8.02807 30.3779 0.00552862 -0.00435541 0.0432276 
143 2 79.3672 -6.84879 29.3274 0.0398889 0.0104227 0.0526899 
140 2 81.6797 -8.65217 29.9505 0.0482899 -0.00238583 0.0772781 
131 1 79.8085 -7.17879 30.2886 -0.00678913 -0.0218481 0.00962778 
497 2 62.3223 0.12089 28.9754 -0.00473679 0.0291983 -0.0405988 
144 2 77.5468 -6.10133 29.7156 -0.00319096 -0.0212902 -0.045907 
474 1 62.7944 5.76092 27.9865 -0.0049648 -0.0140901 -0.0177926 
472 1 64.216 5.62313 28.4536 0.0266763 0.0236795 -0.0155617 
501 2 60.8296 4.43301 25.9477 -0.0289285 -0.0159293 -0.0481645 
479 1 60.9205 4.34869 27.0614 0.0223454 0.0185388 -0.018423 
470 1 64.7059 4.78879 29.5285 0.018356 -0.00544171 -0.00636532 
473 1 62.3584 4.47169 27.7355 0.00960388 0.015969 -0.0290892 
471 1 62.6636 3.64569 28.9467 -0.00569704 -0.0108399 -0.0134722 
469 1 63.9503 3.5683 29.69 0.0168972 0.0156978 0.00379783 
477 1 62.1899 2.23018 28.7051 -0.00113308 -0.0203212 -0.00880644 
484 1 66.4442 5.70369 30.6898 0.00433775 -0.0290656 0.0174216 
496 2 66.6377 6.19488 31.6259 0.0262327 -0.0340765 0.0119387 
503 2 65.1203 6.87166 27.3387 0.0663181 0.0138556 0.0154065 
478 1 65.3628 6.47823 28.3642 0.0220842 0.000969215 0.0140704 
487 1 66.1686 6.7426 29.6457 -0.00306149 -0.010277 -0.00289585 
480 1 62.2319 7.0317 27.5606 -0.00180838 0.0232998 -0.0113239 
492 1 60.7611 6.55817 28.0091 0.0069705 0.0116011 -0.00797988 
499 2 66.8568 7.4802 29.6783 0.0640812 -0.0230431 0.00967514 
383 1 62.0927 -10.8669 29.4543 0.0309642 0.011007 -0.011428 
362 1 66.0205 -11.7318 29.8288 0.0226277 0.0148311 -0.00945103 
364 1 64.6008 -11.4094 29.5482 0.00347265 -0.00907831 -0.0209351 
379 1 65.5241 -9.30119 28.5565 0.03245 -0.0261841 0.000527668 
370 1 64.4143 -10.1351 29.2751 0.00640992 -0.0162491 -0.0139986 
395 2 61.0519 -11.2792 29.9249 0.000736385 -0.0152071 -0.0138743 
376 1 66.5295 -10.229 28.3027 -0.00500309 -0.00778602 -0.00596815 
368 1 66.942 -10.6647 29.808 0.019454 0.00198889 0.0091361 
388 2 67.2025 -9.75627 27.6117 0.0364156 0.0272038 -0.0394743 
375 1 68.2095 -10.8091 30.3936 0.0157328 -0.0160245 0.00563013 
488 1 63.5099 8.65094 29.1975 0.0111779 0.0117813 -0.0188954 
119 1 76.6129 -6.56928 32.9391 0.00248996 0.00787992 -0.0141906 
113 1 77.5271 -7.26526 33.5966 -0.0104513 -0.0179376 -0.00503995 
111 1 77.6501 -7.92432 34.8094 0.0134463 -0.00462186 0.00988602 
126 1 75.2641 -7.14656 34.8635 0.0136367 -0.0115264 -0.00340968 
117 1 76.2782 -7.94116 35.3375 -0.0114112 0.0159038 0.0266506 
493 2 66.5607 1.82363 28.0554 -0.0698271 0.0132708 0.00697106 
494 2 64.837 0.934143 29.5933 0.0348318 -0.0474935 -0.0572554 
138 2 74.5226 -7.16324 35.6385 0.000961549 0.0440098 -0.0623179 
491 1 62.9173 7.90158 28.3067 0.000995096 0.0107615 -0.0225252 
120 1 78.7034 -6.96593 31.2084 0.025095 0.00619802 0.0064845 
118 1 80.683 -8.74723 31.6052 0.00673036 -0.00530679 -0.0182622 
114 1 78.6879 -7.54321 32.7279 -0.0254897 0.011394 0.0110094 
127 1 81.1266 -10.0909 31.7425 0.00752604 0.00878437 0.00219601 
139 2 81.8073 -10.391 31.0607 -0.0418703 -0.0633243 0.0192165 
112 1 79.6331 -8.42872 32.8461 -0.0271527 -0.0106501 0.0132029 
124 1 80.7361 -11.1363 32.8804 -0.00522894 0.0152094 0.0302795 
110 1 79.0664 -9.46001 33.6741 -0.0284602 0.000508493 -0.00916594 
109 1 78.083 -9.18845 34.6842 0.019643 -0.0209606 -0.0138452 
116 1 79.8208 -10.7905 33.5618 -0.0287559 -0.019034 -0.0230838 
482 1 63.8887 1.28358 29.3228 -0.00326339 -0.000113223 0.0120379 
121 1 78.6886 -11.1492 35.7819 0.0117984 0.000660805 -0.00194298 
123 1 79.3468 -11.7606 34.6667 -0.00983771 -0.00277891 0.0224711 
115 1 77.4543 -10.3046 35.4323 -0.0108047 -0.0237985 0.00447963 
500 2 64.1735 9.42022 29.5579 -0.0312581 0.00751031 -0.00859496 
485 1 62.6341 1.11585 29.1951 3.89541e-05 0.0177811 -0.0187966 
141 2 74.6106 -6.52883 32.8389 -0.0825786 -0.0623173 0.00736813 
130 1 76.4842 -6.15238 31.4799 0.00551363 0.00997039 0.0176584 
142 2 75.7456 -5.52707 31.033 -0.0610709 0.0247381 0.00160253 
129 1 75.3277 -6.24965 33.6612 0.00946347 -0.00503977 0.029806 
486 1 61.1089 2.15039 28.1729 0.00984214 -0.000955186 -0.0361614 
483 1 67.0706 3.49247 29.4077 -0.00721485 0.0404424 -0.024204 
475 1 64.6261 2.54996 28.8454 -0.0293245 0.0100268 -0.0253953 
481 1 66.1271 2.62863 28.6103 -0.0235762 0.00237585 -0.0344707 
476 1 66.1443 4.4048 30.158 0.0339205 -0.0258228 0.00153338 
489 1 60.1232 3.03502 27.6689 0.0122092 0.00153749 0.00911974 
490 1 60.2435 5.33654 28.0798 0.0116899 -0.0432283 -0.00812269 