ITEM: TIMESTEP
820000
ITEM: NUMBER OF ATOMS
576
ITEM: BOX BOUNDS pp pp pp
-1.2000000000000000e+01 8.4000000000000000e+01
-1.2000000000000000e+01 3.6000000000000000e+01
-1.2000000000000000e+01 3.6000000000000000e+01
ITEM: ATOMS id type x y z vx vy vz 
80 1 1.56961 10.4687 -7.70453 -0.00902507 -0.00516267 0.0218397 
100 2 2.4019 10.0496 -8.41778 -0.0342734 0.101304 0.0666275 
87 1 0.114064 10.4533 -8.21585 0.0121978 -0.0138642 -0.0214915 
99 2 -2.12687 10.6327 -7.90505 0.0351312 0.0124077 0.104512 
64 2 -8.09628 8.83071 -5.37078 -0.124399 -0.0392252 0.0250477 
85 1 -1.14084 11.0488 -8.01082 -0.0133911 -0.00323244 -0.054534 
464 2 -8.93346 8.38715 -4.70659 -0.0815943 0.0851761 -0.0543706 
241 2 10.7893 2.91793 10.9522 -0.0346683 -0.00378901 -0.0708702 
348 1 11.7999 3.40998 1.28084 0.00326549 -0.000207546 0.0160184 
344 1 9.99929 1.32194 3.87882 0.000275335 -0.020809 -0.00134294 
336 1 11.6052 2.51534 2.46901 -0.00860604 0.00396828 -0.00402282 
347 1 10.3629 2.50316 3.23251 0.0119294 -0.0213918 0.00225016 
359 2 9.8969 3.49765 3.0803 -0.00457996 -0.0115519 -0.0536449 
356 2 9.0762 1.31106 4.52572 -0.0959613 -0.00325287 -0.0474936 
334 1 10.9721 0.575891 4.46097 0.00275377 -0.0107879 -0.0454174 
360 2 11.2558 3.66883 0.170921 -0.0148385 0.112272 -0.00207804 
475 1 -11.193 -11.6865 9.63172 -0.0052674 -0.00937619 -0.0074328 
494 2 -11.9933 -10.854 8.1831 -0.0552366 0.00724639 0.000854545 
244 2 7.07717 2.94127 8.19161 -0.0149094 0.0880201 -0.0014768 
482 1 -11.2899 -11.8314 8.28206 -0.0133986 0.0101638 -0.028215 
235 1 5.08259 3.32425 9.15878 0.0170273 0.00635973 0.0064207 
243 2 9.82494 3.03305 9.63385 0.0112057 0.0114558 0.0286406 
278 2 -5.77127 -10.6439 -1.80489 0.0750061 -0.000750551 -0.0740553 
283 2 -5.65027 -10.7261 -0.913991 0.0498187 -0.0188992 -0.0773294 
220 1 5.30211 2.57822 11.6014 -0.000976877 -0.0085888 0.0217867 
108 2 -11.6087 -10.8105 10.179 0.0602967 0.0396558 -0.0536497 
251 2 1.4936 1.0592 11.6121 0.0875067 0.0268999 0.0193853 
352 2 11.9495 10.5582 8.08818 -0.0194957 0.0391323 0.0792615 
236 1 2.56061 1.43731 11.7564 -0.00208787 0.0133805 0.0203546 
239 1 3.16694 2.15979 10.7308 0.0214828 0.00532272 0.0229383 
247 2 4.33101 3.42193 8.56101 0.00794889 0.0346976 0.0421479 
226 1 4.60725 2.81197 10.3974 0.0148107 -0.00656411 0.0291772 
343 1 10.8742 -0.547543 5.41035 -0.00944116 0.00636913 -0.00376048 
231 1 8.81172 2.93297 10.2674 -0.00267118 0.00634623 -0.0011711 
229 1 9.55397 2.79379 11.3288 -0.0109743 -0.00407617 -0.0115286 
224 1 7.37181 2.86735 10.1331 -0.00849763 0.0325774 -0.0027795 
218 1 6.91767 2.73814 11.3698 0.00385133 -0.0150556 -0.016354 
232 1 6.45137 2.96153 9.11023 -0.0254914 -0.0101922 -0.0123275 
574 2 11.8446 10.1678 8.97297 -0.0286507 0.0390184 -0.0341602 
419 1 12.0054 1.24888 17.6595 0.015551 0.0110787 -0.0142773 
228 1 3.68684 0.813915 12.5021 -0.0230344 0.0189471 -0.00791116 
170 2 -11.9176 -11.721 19.135 0.0328342 -0.0552263 -0.0124387 
222 1 4.83766 1.7742 12.6099 0.00586723 -0.0138971 0.00295581 
285 2 -5.27413 -11.8626 27.3803 -0.0515669 -0.0603342 -0.00176888 
357 2 3.42413 -0.746311 15.3545 -0.00337585 0.0236227 -0.0194048 
227 1 5.32474 -0.00176207 14.2575 -0.00674464 0.0126139 0.0186532 
249 2 5.77198 -1.67951 15.6697 -0.0622612 -0.0117161 0.00907806 
237 1 6.28798 -1.01362 14.6729 -0.00923447 0.00603208 -0.0173909 
238 1 3.91631 -0.387317 14.3545 -0.000322227 -0.00686623 0.00532334 
240 1 3.38393 -0.460123 12.9828 -0.00390537 0.0128127 0.0239356 
234 1 7.52824 -0.507663 15.0666 -0.0073845 0.00642083 -0.0228596 
246 2 8.07766 -0.8104 16.1075 -0.0113241 0.0520201 0.0538939 
221 1 5.72495 1.21649 13.5704 0.014063 0.0012329 0.0162417 
219 1 7.15882 1.3305 13.4952 0.0231074 -0.0177476 0.000875751 
225 1 8.17237 0.491446 14.2498 0.00813324 0.0380857 0.00500109 
245 2 10.1747 1.10131 15.4847 0.032189 0.0550575 0.0114743 
233 1 9.3717 1.28643 14.5823 0.000929367 0.0116091 -0.0164279 
230 1 9.35224 2.56786 13.8966 -0.0112161 -0.0228252 -0.00501675 
242 2 9.70857 3.52884 14.2496 0.0786922 0.0622552 -0.020345 
223 1 8.79704 2.69315 12.4075 -0.0257764 -0.00272903 -0.00843698 
431 2 11.7531 0.345779 18.1891 0.0547078 -0.0341439 0.0321217 
217 1 7.45607 2.3255 12.4582 0.00782118 0.0199461 -0.0127914 
426 2 11.8332 -5.12818 17.3377 0.0274534 0.0556477 0.0346172 
252 2 3.56725 -1.38501 12.3734 -0.00140593 -0.0368997 0.0952877 
144 2 -0.262882 33.9151 -6.24452 -0.009615 0.023824 0.00624129 
394 2 -1.44604 34.0556 -5.76742 -0.0424725 0.0457016 0.0802451 
502 2 -4.24672 30.632 6.41294 0.0349384 0.0219724 -0.000501291 
501 2 -9.66323 33.5749 5.89951 0.0646828 0.0489103 -0.0332836 
486 1 -4.96916 29.9204 6.39717 -0.000109638 -0.0174116 0.0135841 
202 1 6.29095 22.3283 9.27665 0.010906 0.0122251 0.0108039 
204 1 4.99572 22.0332 8.76171 0.00191767 0.015347 2.5254e-05 
191 1 6.34577 23.2347 10.2768 -0.0092677 0.00747983 -0.0235768 
215 2 2.52854 21.7819 9.58399 0.0169238 -0.100875 0.0531663 
192 1 4.25028 23.1027 9.29745 0.0358041 0.000861857 -0.000954745 
203 1 2.75089 22.8692 9.59867 -0.0146175 -0.0001917 0.00646942 
214 2 6.83107 21.5319 9.52799 0.0224311 0.0263266 0.00148132 
485 1 -11.2773 35.3929 7.28359 0.00373179 -0.0153113 -0.0314046 
201 1 7.12277 23.2539 11.4386 0.00601385 -0.0339241 -0.00414632 
490 1 -8.52488 29.5652 7.84781 -0.017459 -0.0193219 -0.00389575 
492 1 -7.37503 29.4448 7.18451 0.0156699 0.00437611 -0.00861368 
212 2 0.516119 23.1984 10.4557 -0.142291 -0.0533379 0.0241226 
200 1 1.7198 23.4982 10.3683 0.00191346 -0.0122604 0.0331304 
183 1 5.71114 25.7693 11.1979 0.00426233 0.026095 0.0144439 
185 1 5.463 24.674 10.3864 0.021869 -0.0140865 -0.0096915 
181 1 4.93996 26.9674 11.2857 0.024797 0.0208556 0.0101449 
196 1 1.32084 26.8784 10.7996 -0.0184563 0.00333387 0.0199222 
199 1 1.046 25.6836 10.1535 -0.0248258 -0.0296683 -0.017594 
195 1 2.90466 28.8362 11.0153 -0.0115257 -0.0193755 -0.0142677 
190 1 2.14768 24.7519 10.0296 0.00309129 0.000707203 0.0218258 
188 1 2.60217 27.4592 10.971 0.0170378 0.00662653 0.00264004 
182 1 3.58441 26.4996 10.9921 -0.00155945 0.0189272 -0.000844542 
184 1 3.48215 25.5339 9.96705 0.0121937 0.0303178 -0.000648097 
186 1 4.46044 24.5409 9.68242 -0.00156599 -0.0590653 0.0117317 
211 2 0.382335 25.269 10.9595 -0.0122509 0.0245708 -0.0708925 
208 2 0.466174 27.6062 10.8612 0.0863099 0.0167626 0.010977 
207 2 2.0718 29.4618 11.1564 -0.0249124 -0.000985269 0.144836 
193 1 4.22868 29.3105 11.0579 -0.000406934 -0.00172728 -0.00521923 
187 1 5.4724 28.4072 11.5454 -0.025686 0.0306761 0.00938462 
533 2 11.0886 29.9444 10.8289 -0.0476786 -0.00623434 0.0457027 
497 2 -11.2599 31.7148 8.79007 0.0471576 0.00123804 -0.023827 
500 2 -9.72152 30.8434 7.2233 0.0548889 0.00956657 0.0698309 
477 1 -10.5625 34.1773 7.7265 -0.0105287 -0.0413841 -0.0313257 
488 1 -10.2151 33.1021 6.73015 -0.00114822 -0.0307981 0.010095 
469 1 -10.9771 35.0455 9.99607 0.0143934 -0.002373 0.00396846 
491 1 -10.0829 31.7972 7.1846 0.0144101 0.0140734 0.0195995 
471 1 -10.3535 34.0243 9.05605 -0.00725036 -0.00322792 0.00910799 
479 1 -9.96663 32.812 9.53027 -0.0333414 0.016575 0.0278262 
474 1 -10.3003 31.6939 8.57555 -0.0153574 -0.00212896 -0.0150311 
473 1 -9.7586 30.5421 9.6188 0.00981268 0.0117282 -0.0106737 
480 1 -9.38312 29.7305 8.66297 -0.0131831 -0.026453 0.0102424 
472 1 -9.75572 31.0444 10.9698 -0.00971004 -0.00626245 -0.00811815 
470 1 -10.049 32.4745 10.9659 -0.0202544 0.0135259 0.00082012 
532 2 -3.47069 34.1822 6.11275 -0.0125543 -0.0528879 0.0534742 
489 1 -6.26315 29.4436 6.67863 0.0136579 -0.0035629 -0.0244924 
481 1 -11.2631 34.3682 11.4087 -0.0154433 -0.0161547 -0.00635812 
476 1 -11.1506 32.8788 11.6319 -0.0101647 0.000848098 -0.0173068 
205 2 4.87233 30.2949 11.3556 -0.0504976 -0.027151 -0.0869529 
498 2 -11.586 35.8427 6.1463 -0.00145463 0.0679167 -0.0181654 
173 2 -9.68602 35.9623 17.9366 -0.026586 0.0382825 0.0208705 
206 2 7.07957 29.3596 12.3876 -0.0545893 -0.0267697 -0.0491578 
194 1 6.63719 28.4648 12.1938 -0.00384296 -0.0190766 -0.00273548 
198 1 7.34638 24.4273 12.5366 0.016119 0.00810184 0.00772894 
197 1 7.32674 27.1042 12.5235 0.0276408 -0.000909959 0.00250211 
209 2 8.29525 27.1611 12.6519 0.0827829 -0.0123772 -0.0468817 
133 2 8.21374 24.2078 13.1758 -0.00420498 0.00930588 0.0398549 
189 1 6.93044 25.7022 12.1546 0.0117485 0.00862178 -0.00827403 
487 1 -10.6664 31.0996 13.1272 -0.00944015 -0.00449997 0.00422299 
155 1 -11.5207 33.3394 13.7525 -0.0287049 0.0285131 0.019496 
484 1 -11.0155 32.5546 12.7661 -0.0270269 -0.00972689 0.00211087 
261 1 -3.31196 34.4524 29.7541 0.0164022 0.00399618 -0.0216694 
499 2 -10.8449 30.9327 14.1499 0.0165165 0.0429062 -0.00641928 
478 1 -9.96355 30.3308 12.1812 0.00831331 0.0350946 -0.00814877 
503 2 -9.81436 29.3718 12.4551 -0.0866217 -0.0193264 -0.116205 
165 1 -10.3518 33.5906 14.4767 -1.3159e-05 0.026105 0.011026 
162 1 -9.91111 34.0541 15.6625 -0.00514415 -0.0133499 -0.0161604 
153 1 -11.0608 34.7737 16.1073 0.00257054 -0.00106489 -0.0472165 
269 1 -1.82297 34.8945 30.2283 0.00632544 0.0153434 -0.0165255 
161 1 -10.4704 35.7415 17.1857 -0.0202852 0.002569 0.00794078 
254 1 -4.94392 32.653 32.5712 -0.00192834 0.0165574 0.0154076 
267 1 -3.39933 31.4506 33.9812 0.0154537 -0.0110174 -0.0173735 
174 2 -8.83452 33.732 15.9158 -0.0753088 0.0824927 -0.0591568 
288 2 -8.50955 32.398 28.1434 -0.0539036 0.0584308 0.0613709 
264 1 -8.09616 33.7613 30.022 0.0125782 0.0203392 0.00758488 
274 1 -6.8765 33.3594 27.9675 0.00607137 -0.0222831 0.00695559 
276 1 -7.86955 33.0731 28.7503 -0.0189379 0.00957183 -0.00348519 
575 2 -6.64734 35.5365 28.3993 0.038061 0.0481987 0.0586762 
286 2 -7.37859 33.3132 26.9546 0.0229172 -0.0194024 -0.0463318 
273 1 -4.86138 35.2095 27.9201 -0.00882815 -0.0127843 0.00694859 
263 1 -6.15862 34.6123 28.6379 -0.0122489 0.034175 -0.0225522 
270 1 -3.6251 35.0865 28.6956 0.0186652 -0.0129617 0.00661903 
275 1 -9.15523 33.0992 30.7633 0.0158433 -0.00911777 0.0188686 
272 1 -8.54694 31.7975 31.2385 0.00858446 0.00635465 0.0221039 
268 1 -6.0233 31.0255 34.2813 -0.0112858 0.0143772 -0.0068964 
271 1 -7.37292 31.4292 33.6047 -0.00871789 -0.0220173 0.00946837 
262 1 -7.71466 32.3342 32.485 -0.0186421 0.0287676 0.00502737 
256 1 -6.43173 32.7711 31.7695 -0.00298086 -0.00974522 0.00538204 
258 1 -6.72777 33.5504 30.7005 -0.0121891 -0.00956392 -0.0159854 
277 2 -1.46764 32.2023 33.5572 -0.0324156 0.0746461 0.0435015 
265 1 -2.42968 32.3687 33.4364 0.017117 -0.0296199 -0.0417082 
259 1 -2.67628 33.2245 32.3583 0.0190405 0.00964306 -0.0120378 
253 1 -3.97563 33.3807 32 0.000133947 -0.00307847 -0.0162712 
266 1 -1.54394 34.0018 31.3864 -0.00487309 0.00265969 0.0112884 
255 1 -4.44877 34.0941 30.641 -0.0161432 0.00791368 -0.0076065 
279 2 -2.92186 30.6169 34.5494 0.013317 0.0113904 0.0313449 
281 2 -0.460753 33.8307 31.6871 -0.0681417 -0.0323825 -0.0445011 
280 2 -6.40583 31.1727 35.2189 0.0596793 0.0406216 -0.0126262 
260 1 -4.83831 31.6352 33.6303 2.4574e-05 -0.0269622 0.00491374 
257 1 -5.46721 33.9115 29.8067 -0.00908126 0.00413856 0.00555463 
462 2 -11.0269 14.1507 15.5396 -0.0568078 0.0340986 0.00501426 
213 2 7.82211 22.5342 11.8618 0.0207534 -0.0889462 -0.0652328 
158 1 -11.748 35.7543 18.0267 0.00840148 -0.0183752 -0.0217404 
572 2 14.2847 -9.85333 -6.73543 0.13188 -0.0543226 0.0907563 
563 1 15.357 -10.2235 -6.3998 -0.0227344 -0.0392709 0.0154906 
421 2 18.4783 -11.0548 -6.12406 0.0242128 -0.0255969 0.041027 
94 1 23.1222 10.1542 -7.63812 0.0132507 0.00924492 -0.00237667 
96 1 23.0142 11.1116 -8.59711 -0.00185818 0.00295852 0.00226001 
78 1 25.3873 11.4847 -7.9243 -0.00703934 0.0217247 0.00989361 
73 1 27.8937 10.301 -6.8936 0.0146168 -0.0110888 -0.0144616 
536 2 18.5231 -11.3747 9.95451 0.0620242 0.0382238 -0.0119154 
77 1 25.2806 10.5885 -6.65084 0.0252113 -0.01508 -0.00758966 
106 2 22.0624 11.0831 -9.05417 -0.073974 -0.009607 0.0128345 
83 1 24.0454 10.0793 -6.64954 -0.00251105 -0.00662344 0.0088672 
75 1 26.5984 10.0751 -6.17263 -0.0210616 -0.011233 0.0154075 
76 1 26.7949 11.5612 -8.58491 0.0110582 0.0109781 0.0171764 
552 1 15.4697 -11.5415 -5.97254 0.000211728 0.0112847 0.0033201 
358 2 13.206 4.54833 0.0767275 -0.0640483 0.00731871 0.12128 
102 2 23.3695 8.43275 -5.59763 -0.0548728 -0.03424 0.00748563 
81 1 26.5974 9.31498 -5.02412 0.00274615 0.00147349 0.000448726 
101 2 27.9483 8.03522 -3.59581 0.0220245 -0.100341 0.00397785 
89 1 27.7791 8.66301 -4.37613 -0.044357 0.00096568 -0.000865097 
90 1 25.2668 9.16767 -4.37067 -0.0267927 0.00125256 -0.00345795 
93 1 24.2573 8.96407 -5.46731 0.0081256 -0.000791333 -0.0150588 
79 1 29.1071 10.3027 -6.10911 0.0158479 -0.0136473 -0.0148601 
86 1 28.8918 9.25727 -5.21129 -0.00359611 -0.0172989 0.0101983 
338 1 17.254 -0.281952 4.20169 0.00899006 0.00568975 0.0189372 
350 2 18.2011 -0.836671 4.24983 0.0524559 0.0297363 0.120344 
353 2 18.0475 1.21789 2.60719 0.0274335 0.10141 -0.0298787 
341 1 17.3249 0.847392 3.38776 -0.0137783 0.0133741 0.0336604 
331 1 15.8045 -0.326542 4.6679 -0.00701316 -0.0177867 -0.00498313 
349 2 16.4651 -2.22152 5.94662 0.0528676 0.0149011 0.0238949 
337 1 15.538 -1.62373 5.35299 0.0315199 -0.016951 -0.0282177 
216 2 15.7187 4.26103 0.634874 0.0908121 -0.0593514 -0.00101301 
354 2 17.601 3.10844 1.34885 -0.0794047 -0.0535038 0.0482051 
342 1 16.4885 2.87378 2.03996 -0.00955201 0.00561793 0.015945 
345 1 15.5819 3.46066 1.50635 -0.00107108 -0.00304464 0.026739 
346 1 13.1501 3.85275 0.934142 0.0132181 0.00787455 0.00178889 
329 1 14.0209 2.28488 3.00591 -0.00458284 -0.0198558 0.00540303 
327 1 15.1113 1.77982 3.89476 -0.0159767 -0.0019256 -0.00263844 
326 1 13.4053 -0.0164008 4.54845 0.0178829 -0.00646305 -0.00999126 
328 1 12.3973 0.565588 3.85767 -0.0279287 -0.0144266 -0.0134735 
325 1 14.6709 0.485943 4.20729 0.000234577 -0.0122076 -0.000244851 
330 1 12.7054 1.71101 3.02254 -0.0102651 -0.00999616 0.00802282 
333 1 16.3876 1.94022 3.16723 -0.000561429 0.00762182 0.000434841 
335 1 14.188 3.39863 1.78746 0.00355533 -0.00767921 0.00211874 
351 2 14.4046 -2.40396 7.24045 0.0522383 0.0247453 0.0331604 
339 1 14.5787 -1.60778 6.37056 0.00010875 -0.013696 0.000777054 
332 1 13.4595 -0.823149 5.84489 0.0233828 -0.0115611 -0.0202773 
355 2 29.0042 11.5261 -8.03743 0.0144852 0.0358709 0.0444114 
103 2 30.4311 11.7581 -10.5409 0.0383222 -0.00169241 -0.0599922 
97 2 29.9027 11.3224 -6.08861 0.0701243 0.0743745 -0.00275593 
74 1 27.7951 11.4182 -7.76604 0.00557092 -0.019661 -0.0152624 
340 1 12.0814 -0.750162 6.27904 0.0160786 -0.00451821 -0.0070588 
404 1 16.6598 -0.0669205 16.5778 -0.00842198 -0.00446687 -0.0124291 
398 1 15.9238 -1.2383 16.9598 -0.010927 0.00138702 -0.0130127 
397 1 17.9991 -2.64831 16.5316 0.0419398 0.0195054 0.0156237 
17 1 16.7211 -2.46361 16.4071 0.010044 0.0130246 0.00147894 
425 2 16.1497 -3.28723 16.1331 -0.00157354 -0.00357834 0.00357327 
411 1 18.2397 0.188125 17.1299 -0.0191843 -0.00537875 -0.00715109 
415 1 14.6513 -1.16407 16.4855 0.0114709 0.0173721 0.0210298 
400 1 13.6349 -2.33619 16.8399 0.0156993 0.00119083 -0.0209968 
409 1 19.0824 -0.924277 17.4239 0.00248406 -0.0183512 -0.0274389 
403 1 19.3037 -2.28344 16.6871 0.0312185 0.0244733 -0.0188144 
410 1 21.9513 -2.20095 16.5932 -0.0280596 0.0185645 0.0114303 
422 2 24.268 -2.57069 16.7136 0.0778547 -0.0120975 0.073991 
413 1 20.6173 -2.75689 16.8143 -0.00712695 -0.0200135 0.00910429 
14 1 23.336 -2.11146 16.8124 0.00306257 -0.0097779 -0.00147646 
29 2 20.5219 -3.83676 16.3139 0.1896 -0.108955 0.0140728 
423 2 19.444 -1.2038 18.3633 0.00978493 -0.0649754 -0.0885202 
406 1 14.2338 0.41146 16.1863 0.0297412 -0.00429355 -0.000752821 
412 1 15.7561 0.805833 16.1056 0.000538563 -0.0117829 0.00587066 
427 2 18.4379 0.775031 17.8879 -0.045317 -0.0413107 -0.0300546 
424 2 16.2225 2.05545 15.9402 -0.0444172 -0.0483917 -0.0873516 
416 1 12.9692 1.10271 16.5745 -0.0117529 0.0162701 0.0167212 
131 1 35.5479 -6.3347 28.3946 -0.00109593 -0.00147625 0.0131771 
405 1 15.3066 -5.61689 21.6185 0.0136409 0.011881 0.0283412 
417 1 16.0194 -5.49501 20.3018 0.00591981 0.0122333 -0.0100933 
418 1 15.9238 -6.99268 22.0107 0.00631074 0.0056974 -0.0185212 
408 1 16.3813 -8.03547 22.8057 0.0130671 -0.0158005 -0.0120303 
132 1 34.1521 -7.78391 30.1123 0.0134401 -0.00324294 0.0265452 
121 1 30.373 -6.70039 23.3818 -0.0219077 -0.0100107 0.0105303 
123 1 31.7178 -6.43366 22.9212 -0.0202333 0.00311999 -0.0166645 
407 1 14.9923 -5.01295 19.2252 0.00923046 0.0329369 0.00703184 
432 2 13.1756 -5.1985 22.2755 0.00197744 0.0711661 -0.011801 
414 1 13.9589 -5.72421 21.7719 0.00959901 -0.0302188 -0.00183363 
402 1 12.9828 -3.418 17.2564 0.00156108 -0.0192585 -0.0256427 
429 2 15.1212 -4.17389 18.5366 -0.021058 0.0182244 -0.119532 
399 1 13.4411 -5.17833 19.0624 -0.00912775 -0.0294057 0.0137843 
401 1 12.7149 -4.89143 17.7369 0.0119418 -0.00518969 -0.0342316 
141 2 31.5031 -9.88927 28.9842 0.0521104 -0.123444 -0.00839507 
139 2 34.2661 -5.7173 22.7012 -0.105928 -0.013249 -0.0349876 
420 1 16.885 -9.26566 23.1495 0.0113245 0.00162285 -0.0371051 
430 2 16.8261 -10.2573 22.6237 -0.0251829 0.0428155 0.00983818 
136 2 16.5896 -9.59512 24.3557 -0.0142394 -0.0287902 0.0239723 
134 2 27.9959 -7.99584 24.1395 0.0502087 -0.0741359 -0.0651498 
138 2 29.1886 -10.1658 27.398 -0.0414715 0.0152962 0.108245 
137 2 27.5747 -8.0158 26.4396 0.0560962 0.0479957 -0.0764764 
125 1 28.5151 -7.59722 26.4106 -0.0110357 -0.00202767 0.00164065 
122 1 28.8071 -8.03254 24.9322 -0.00777267 0.00674983 0.00291527 
110 1 32.1741 -6.64108 25.661 -0.0421868 -0.0109626 0.00934744 
126 1 29.5875 -9.24355 27.8817 -0.00652364 -0.00932223 -0.0166609 
129 1 30.6505 -9.10772 28.6613 0.0131826 0.00166767 0.00879071 
119 1 31.1965 -7.54411 29.34 -0.0135947 0.0196698 -0.00881571 
117 1 29.1813 -7.74227 27.7226 -0.00731871 0.0136518 -0.000257689 
115 1 30.0222 -7.33109 24.7502 -0.00749707 0.00360657 0.0109455 
113 1 31.9438 -7.00067 28.1423 0.0124081 0.000620596 -0.0106863 
111 1 30.5634 -6.93611 27.3774 0.00399319 -0.00333703 -0.0108252 
109 1 31.0333 -6.9381 26.0772 -0.016987 0.0125942 -0.0241653 
114 1 33.2789 -6.74451 27.8666 -0.00803528 0.00513654 -0.010427 
120 1 34.3304 -7.17814 28.7872 -0.00856646 0.00445419 -0.00240108 
112 1 33.4101 -6.7128 26.4738 -0.026059 0.0204083 -0.0119624 
142 2 30.8851 -7.22299 30.3051 0.0842233 0.0500916 -0.056316 
116 1 32.5465 -6.53848 24.1981 -0.00963047 0.00899206 0.0143641 
124 1 33.8257 -6.00559 23.6325 -0.0174834 -0.00553146 -0.0258484 
118 1 34.738 -6.13438 26.0275 0.00317857 0.00167649 0.00338153 
127 1 34.8268 -6.53347 24.605 -0.000747659 0.00192505 0.0137943 
130 1 32.6746 -7.28574 30.2082 0.00542507 -0.00021525 0.000765938 
250 2 13.0765 -5.69279 19.7851 0.0303676 0.0387375 0.0636456 
535 2 18.4029 -11.7601 12.6629 -0.0174636 0.00551421 -0.00525589 
496 2 35.7463 -6.09239 24.3135 -0.0468512 -0.0117748 0.0372628 
128 1 35.7688 -5.9741 27.1432 -0.0232413 -0.0270712 -0.00332954 
428 2 12.178 2.20903 18.2852 -0.00502439 -0.0857602 0.0106127 
107 2 24.2293 13.7757 -9.98234 0.104691 -0.00614647 -0.0387985 
525 1 13.4457 31.4094 9.09883 0.00348814 -0.0168674 0.0136906 
92 1 26.1608 13.0789 -10.1462 0.0124448 -0.00602092 -0.0303684 
104 2 25.9346 13.5266 -11.2052 -0.000201936 0.00841753 -0.0149694 
95 1 24.787 12.8719 -9.68356 -0.00278217 -0.0268073 -0.0109807 
82 1 27.348 12.6261 -9.44626 -0.021938 0.00688175 0.0167805 
527 1 17.8872 34.7327 9.01785 0.003899 0.0111434 -0.0158634 
522 1 13.3185 31.0512 10.4599 0.0226035 -0.0038509 -0.00219761 
576 2 19.7163 35.6587 -5.98016 0.0478849 -0.00759749 -0.0124625 
570 2 16.1072 28.8604 -8.61615 -0.0143646 -0.01678 -0.0299607 
558 1 15.7827 29.8847 -8.42551 -0.00405171 0.00959411 0.0141897 
566 2 14.6756 28.0323 -6.89588 0.0220336 -0.0770058 -0.0286992 
554 1 15.4852 28.8812 -6.33535 0.00266493 -0.0131656 -0.00428246 
549 1 15.5273 30.1669 -7.07261 -0.0204401 -0.00404191 -0.00073985 
561 1 16.7928 30.81 -8.83101 -0.0111327 0.00652401 0.00425213 
545 1 16.5267 32.7394 -6.90453 -0.00952667 -0.00481942 -0.00176298 
564 1 17.8613 34.9857 -6.29294 -0.0104899 -0.00862856 -0.0110638 
551 1 16.9613 32.2971 -8.25138 0.00091772 0.0132968 -0.00462617 
546 1 17.1611 33.7488 -6.11396 -0.00332504 0.0204458 -0.0125096 
562 1 18.8196 35.9831 -6.52093 0.00373176 1.73768e-05 0.0105284 
534 2 12.7556 31.2149 8.18346 -0.0391028 0.0285567 -0.0121377 
573 2 17.9981 32.0898 -8.71209 -0.00301185 -0.0453047 -0.0707381 
510 1 16.2995 33.3336 10.0008 -0.00350331 0.0140341 -0.00782507 
557 1 15.1917 28.9002 -5.00847 0.00373054 0.0047259 0.00723351 
547 1 14.9854 28.8373 -3.68981 -0.0146692 -0.0110666 0.0114329 
565 2 14.4578 28.5769 -1.5821 0.131474 -0.0617536 -0.0983038 
553 1 14.8358 29.2765 -2.36145 6.24184e-05 0.020709 -0.0136452 
559 1 15.0592 34.1461 -3.03592 0.0110714 -0.00559096 0.00475785 
550 1 15.5203 34.3072 -4.46531 0.00329871 0.00677578 -0.0101995 
568 2 16.1975 33.2868 -1.41236 0.0375558 0.0195858 -0.0855978 
556 1 15.5062 33.0535 -2.28652 0.0286037 -0.0297424 0.0166872 
555 1 15.9631 31.7179 -2.85148 -8.20671e-05 0.0129291 -0.017374 
548 1 15.5943 30.4859 -2.1625 -0.00983352 -0.00973645 -0.0155878 
541 1 16.936 31.0838 -5.13875 0.0127672 -0.00492399 0.0094516 
542 1 16.4388 32.1177 -4.16203 0.00956855 0.0109434 -0.00137 
543 1 16.1039 31.3147 -6.21356 0.0197134 0.00150976 -0.00842041 
544 1 16.6323 33.4464 -4.71291 0.00177467 0.0212532 -0.00395056 
567 2 16.3792 30.0451 -1.513 -0.023286 -0.0112821 0.0695553 
571 2 14.7633 35.0673 -2.4888 -0.146661 0.000653104 -0.10936 
560 1 15.36 35.2725 -5.4022 -0.0184321 0.0179324 0.0121513 
569 2 17.6387 30.1773 -4.59194 -0.0670392 -0.0337908 -0.0429973 
515 1 14.7217 32.0359 8.8799 0.0152581 0.0178718 -0.0045194 
524 1 17.8983 35.6202 10.033 -0.0227171 0.00427943 0.0135048 
509 1 15.3756 32.2713 10.0129 0.00227901 0.0197728 -0.00235493 
514 1 17.05 35.1243 11.3084 -0.0142146 0.0274752 0.0409491 
526 1 15.0169 32.3902 7.36653 0.000443553 -0.00522419 0.000334855 
507 1 14.3205 31.6931 11.2037 -0.00230234 0.0201975 0.00932936 
508 1 16.207 34.0921 11.281 0.00588532 0.00490359 0.00832134 
516 1 16.8459 33.8993 8.78727 -0.00427487 -0.0252191 -0.00153536 
538 2 14.2928 31.806 6.33113 0.0699201 -0.0115767 0.0303585 
528 1 15.9502 33.2087 7.67825 0.0168456 0.0158451 -0.00193258 
91 1 28.5569 12.8096 -9.91347 0.00918138 0.0077599 0.00302561 
88 1 29.8 12.6134 -10.595 -0.0219306 0.0275717 0.00696071 
84 1 24.3072 11.9966 -8.5645 -0.0270441 -0.00445454 0.00167437 
513 1 12.0937 30.267 11.2383 0.0309572 0.00146292 0.00175199 
529 2 14.5853 30.9408 15.4501 0.13846 0.00629721 -0.0117319 
517 1 15.0359 31.4829 14.7485 -0.00418544 0.0309816 0.0084441 
520 1 16.4303 35.3162 13.8279 0.00433863 -0.00985724 0.000278147 
512 1 15.9966 33.8678 13.8328 -0.0177145 -0.0123109 0.00909266 
519 1 16.0245 32.5376 14.5543 0.0118329 -0.00788325 0.00676317 
531 2 16.8884 32.1994 13.6863 -0.0070886 0.0373702 -0.0943677 
511 1 14.5483 31.1608 13.4809 0.0136004 -0.0258991 0.00063905 
523 1 17.2171 35.8127 12.6461 0.0122825 0.0141769 -0.010144 
505 1 14.542 32.3613 12.4853 0.016613 0.0150805 0.0122809 
506 1 15.5355 33.3611 12.5122 0.00345607 0.0184016 -0.010919 
518 1 13.7073 30.0564 13.2199 0.0140386 -0.00979345 0.007163 
521 1 12.7233 30.1106 12.2296 -0.00683315 -0.00808796 -0.0171534 
539 2 33.9603 24.2017 24.1236 -0.00944057 -0.00598271 -0.0285333 
179 2 33.0255 23.9486 24.0574 -0.0169004 0.0787346 -0.0524813 
530 2 13.5368 29.1793 14.0376 -0.058796 0.079764 0.0178241 
177 2 44.7533 10.2711 13.7014 -0.0835071 0.0716486 -0.0171428 
143 2 35.75 -5.75771 29.2733 -0.0784026 0.0721341 0.00649628 
140 2 36.6077 -5.27704 26.8504 -0.107983 0.0238775 -0.0434726 
385 2 47.1828 -5.65306 33.5347 0.0124272 -0.0193967 0.0446089 
41 1 52.0731 29.3102 -1.15107 -0.0346712 -0.0124786 -0.0281543 
58 1 52.4764 29.0491 -2.58846 0.0180678 -0.0162917 -0.0222395 
39 1 50.6541 29.6332 -0.832519 0.00228406 0.00155298 0.0192372 
54 1 53.6576 28.1423 -2.64437 -0.00314386 -0.0164919 0.0163647 
48 1 53.916 27.9937 -0.253505 0.0141063 0.0207106 0.00949257 
60 1 53.9708 27.3417 -1.62819 -0.00405916 0.0233834 0.0204316 
65 2 46.8969 29.8937 0.786403 -0.0337706 -0.0071249 0.00545404 
50 1 47.9574 30.0491 0.424394 0.0202375 0.0182067 0.0148945 
69 2 54.0966 27.9102 -3.71174 -0.0245957 0.0686072 0.0471602 
70 2 54.8555 26.6297 -1.61823 -0.0190574 0.0842194 -0.0388325 
72 2 54.4 26.0555 0.601039 -0.0433067 -0.0505341 -0.050045 
47 1 53.3538 30.8101 -4.43127 0.0138751 0.00674912 -0.0185107 
57 1 52.7543 29.8428 -3.64711 -0.00403074 -0.000979815 0.0254039 
66 2 54.2702 31.427 -4.75554 -0.039207 0.0237051 0.0249028 
53 1 48.1601 29.0332 -0.707183 0.0122901 -0.0122685 -0.0240134 
45 1 49.4621 29.0672 -1.36483 0.015355 -0.0458612 0.0429174 
62 2 49.2444 28.1466 -2.2499 0.0273923 -0.110269 0.00445194 
61 2 48.6752 31.1399 3.44483 0.0455567 0.0581555 -0.00344893 
42 1 52.8532 28.9585 0.0666441 -0.0280657 0.0122938 -0.0218561 
43 1 49.0195 30.5797 1.195 0.0170906 0.024788 0.0195276 
37 1 50.2039 29.8115 0.574338 -0.016398 -0.0107944 0.0456856 
40 1 52.2605 28.992 1.4532 -0.0161834 0.0080781 0.0244127 
38 1 50.7625 29.1951 1.64495 -0.00767197 -0.00291239 -0.012187 
49 1 49.1123 30.4429 2.74872 0.00303767 -0.00397127 -0.0120515 
44 1 50.0299 29.6443 3.25538 0.00502182 -0.0110713 0.014598 
51 1 50.3082 29.0566 4.57267 -0.00820526 -0.00122468 -0.0272354 
52 1 51.6019 28.4184 4.66774 -0.00545189 0.0222374 -0.0267549 
55 1 52.8804 28.0121 4.12858 0.00750335 0.00107794 -0.00393604 
46 1 53.0377 28.2496 2.67605 -0.00703437 0.0102519 0.00197696 
67 2 53.6683 27.552 4.74378 -0.0271494 -0.00928228 -0.076177 
56 1 54.0344 26.8623 0.887399 -0.0307523 0.0149125 0.0182557 
59 1 53.948 27.1888 2.25682 0.0134585 -0.043379 0.000544774 
68 2 54.2685 26.4461 3.14511 0.00206782 -0.156923 0.00986023 
63 2 49.5824 29.2293 5.51045 -0.0251492 0.0869085 -0.0367014 
361 1 79.8761 -4.66873 11.4372 0.0237528 0.0174151 0.0242893 
210 2 83.0831 7.54953 -10.7109 0.0346354 0.0185574 0.0333889 
287 2 63.0539 2.54538 -3.01925 -0.00934888 0.0215155 0.10464 
33 2 63.2735 2.7451 -2.43207 -0.0540759 -0.0593522 -0.0883616 
367 1 78.7558 -3.8774 11.928 -0.0122781 0.00425976 0.0171039 
391 2 80.3996 -3.70282 5.77824 0.0459631 0.056987 -0.135279 
105 2 79.3469 3.50675 -2.92241 -0.047636 0.0328618 -0.0937504 
466 2 78.4215 3.20759 -2.66758 -0.0106961 -0.0792039 0.00778226 
392 2 80.085 -7.51876 7.20868 0.0337876 0.0525928 -0.0290036 
370 1 80.7848 -6.03274 8.14096 0.0194657 -0.00801944 0.00942142 
380 1 80.9709 -7.24525 7.60877 0.0136604 -0.0115355 -0.00166585 
364 1 81.1524 -5.71672 9.46368 -0.0109007 0.0111921 0.0185987 
383 1 81.7047 -8.19372 8.52794 -0.00486092 -0.0107905 -0.0230928 
395 2 82.5151 -8.92697 8.68875 0.0277637 0.0213478 0.03513 
372 1 81.9184 -7.86337 9.966 -0.000564982 0.0347069 -0.00782975 
366 1 81.2056 -6.8366 10.5308 0.00447929 -0.0115862 0.010626 
384 1 82.3737 -8.48782 11.2695 0.00921463 0.0166973 0.0085469 
396 2 82.8028 -9.20908 10.5602 -0.0295936 -0.015324 -0.0726382 
284 2 83.3499 6.99626 -11.2123 0.0189122 -0.140112 -0.100861 
375 1 78.0671 -3.54747 9.45521 0.0148602 -0.000537083 0.00479168 
373 1 77.7961 -3.44226 10.8893 0.00868444 -0.0201054 0.00884192 
387 2 76.659 -3.70258 11.1308 0.00914903 -0.0161392 0.0141205 
388 2 77.62 -3.13276 8.60015 -0.0641019 0.00439597 -0.038462 
379 1 79.8685 -3.88222 6.72939 -0.00137535 0.00581921 -0.00193852 
376 1 79.7871 -4.69936 7.84408 0.0118439 0.0167141 -0.00463417 
368 1 79.4597 -4.01877 9.04568 -0.00272406 0.0187235 0.0271175 
362 1 80.0857 -4.91894 10.0188 0.041701 -0.0202973 -0.0223762 
365 1 80.8782 -6.71714 11.9044 0.0013111 0.00754132 -0.0237822 
160 1 79.5032 -11.1231 16.6183 0.00165292 -0.00557709 -0.00695324 
176 2 79.2714 6.53345 35.6333 0.0178639 -0.0235394 0.000105603 
318 2 75.0645 -11.2507 13.4096 0.0653376 0.0194317 0.0116611 
151 1 83.1415 -11.2672 17.3147 -0.00588692 -0.0176457 0.000990535 
393 2 82.7225 -7.25274 14.521 -0.0116765 0.0237313 0.0041352 
382 1 81.9003 -8.75408 12.4918 0.0192655 -0.0353243 -0.00862333 
167 1 80.5899 -11.1663 12.3625 0.0350064 -0.00653652 0.0042923 
381 1 81.573 -7.15938 14.5705 0.0129879 0.000248322 -0.00694314 
371 1 80.9638 -7.55531 13.1254 -0.00652609 0.00809433 0.018393 
159 1 81.4648 -9.70531 16.8411 -0.00233885 0.0173989 0.0108846 
169 2 80.7499 -9.0194 17.233 -0.0215357 0.0272314 0.0453364 
157 1 82.6985 -9.94117 17.5708 -0.0155434 -0.000746878 0.0131489 
152 1 80.8737 -10.9143 16.025 -0.0163153 -0.0139466 -0.00344331 
390 2 82.5809 -10.5522 12.7775 0.0514424 -0.0545887 -0.0145334 
164 1 81.5574 -10.2315 12.7919 -0.00119441 0.00697149 -0.00691572 
171 2 83.4475 -9.67615 18.4176 -0.0329264 -0.0603943 0.0458475 
163 1 78.6999 -11.8656 15.8429 0.0138991 0.0177821 0.00773082 
374 1 78.3492 -3.63556 13.2653 0.0157877 -0.0116919 0.0145802 
389 2 78.4136 -4.13588 15.3823 0.049149 -0.0754692 -0.0968966 
495 2 80.8763 -5.0776 15.2581 0.0467617 0.0546863 0.0614359 
378 1 80.518 -6.13659 14.8218 -0.0248404 0.0102392 -0.0176027 
377 1 78.8247 -4.34407 14.404 -0.034894 -0.0136161 0.0159796 
369 1 79.6675 -5.26931 13.8946 0.00786384 -0.020796 -0.00120006 
363 1 80.3115 -5.62977 12.4033 -0.0175881 -0.00303081 0.00796022 
386 2 77.4291 -3.25789 13.1739 0.0795268 -0.0280458 -0.0399786 
16 1 68.4372 10.4098 20.1719 0.0102328 0.00805477 -0.00396364 
145 1 82.8463 -11.8089 15.9709 -0.00676737 -0.0187783 0.0161336 
1 1 71.3907 11.5717 16.8663 -0.00124796 0.00867143 -0.00392518 
19 1 68.9481 11.2904 19.4073 -0.00531451 0.0171957 -0.00828349 
172 2 79.3206 -11.2848 17.7749 -0.0960131 0.0252115 -0.0318615 
7 1 72.5548 11.1076 16.9276 0.00461931 0.0256599 0.00338345 
25 2 73.642 9.72301 16.0176 0.000493051 -0.0343836 -0.0657692 
8 1 75.6927 11.5741 17.9114 -0.0258135 0.00118244 0.00206747 
13 1 73.6509 10.4262 16.7393 -0.00368748 0.0118837 0.0205981 
15 1 75.0045 11.2317 17.4233 -0.00600214 0.00923178 -0.00373797 
28 2 67.3114 10.553 20.3597 -0.0368067 -0.0623168 -0.0937781 
31 2 68.6356 9.28877 20.0347 0.0268885 0.0236194 -0.0251862 
146 1 81.7942 -11.5265 14.8843 -0.0135564 -0.02929 0.00652775 
309 1 76.4402 -11.868 14.6233 0.015002 -0.00510367 0.0345692 
299 1 77.5431 -11.9484 15.2562 0.0348967 0.00658509 -0.00327549 