ITEM: TIMESTEP
1030000
ITEM: NUMBER OF ATOMS
576
ITEM: BOX BOUNDS pp pp pp
-1.2000000000000000e+01 8.4000000000000000e+01
-1.2000000000000000e+01 3.6000000000000000e+01
-1.2000000000000000e+01 3.6000000000000000e+01
ITEM: ATOMS id type x y z vx vy vz 
244 2 4.20071 1.48016 -6.22221 0.0220154 0.0832095 -0.0236502 
243 2 7.37152 -0.021944 -6.41692 -0.0152729 0.00610045 0.148741 
247 2 2.89253 1.12565 -4.41618 -0.00605479 0.0188583 0.0559593 
235 1 3.85303 1.37686 -4.11537 0.00158267 0.0195849 -0.0123185 
232 1 4.63345 1.43795 -5.27482 0.0145095 -0.00289433 -0.00189797 
223 1 8.84362 0.0303001 -3.6978 0.0202734 0.0147535 -0.0136672 
224 1 5.73195 0.543061 -4.70557 -0.02836 0.0256426 -0.0336702 
231 1 6.96555 0.0621915 -5.40508 0.00202984 -0.00188486 0.00454471 
229 1 8.22526 -0.675185 -4.79824 -0.0312139 0.00639098 0.00445166 
241 2 8.71067 -1.52895 -5.31633 0.047169 0.0495766 0.0402888 
218 1 6.35145 0.741286 -3.40412 0.00294568 -0.00773374 0.0192649 
217 1 7.57292 0.60702 -2.91129 0.00645291 -0.00201553 0.00877804 
251 2 2.00868 0.964237 -2.0769 -0.0488331 0.00551651 0.0197036 
239 1 2.87756 1.32138 -1.88415 -0.0155112 -0.0129232 0.0216107 
226 1 4.14924 1.74391 -2.6999 0.00762594 0.00492576 0.00331945 
236 1 3.31302 1.18299 -0.652227 0.0298972 -0.00779633 -0.0135277 
220 1 5.34069 1.0881 -2.21273 0.0202968 0.0154088 0.0147933 
388 2 2.5739 0.533191 -0.0915612 -0.0691848 0.00523885 0.0342817 
228 1 4.64672 1.22809 -0.03788 0.0119868 0.0189742 0.0073222 
222 1 5.80304 1.19067 -1.00218 0.00520706 0.0204447 0.0312832 
221 1 7.28162 0.903079 -0.555516 -0.0215608 0.0141466 0.00824991 
219 1 8.13195 1.12353 -1.61826 -0.0134968 0.0225274 -0.00974126 
225 1 9.48666 1.87317 -1.29533 -0.00430445 -0.0040835 -0.00776526 
230 1 10.0031 2.87217 -2.30068 -0.0292535 -0.00696021 -0.0130123 
233 1 10.4026 3.73552 -3.2223 0.0337134 0.00246665 -0.00284261 
245 2 11.4337 3.76569 -3.56706 -0.0358366 0.0675287 0.0860477 
242 2 9.58716 4.01551 -3.72289 -0.00634314 -0.080193 -0.0733804 
240 1 4.92316 2.49499 0.652128 0.00932508 0.00176937 0.0196261 
252 2 3.85312 2.71525 0.976376 -0.0818471 -0.0141413 0.106442 
357 2 7.03489 3.40907 1.08723 0.00192752 -0.055219 -0.0129206 
238 1 6.36069 2.56541 1.13803 -0.00367966 -0.0121906 -0.0144759 
249 2 9.24601 1.28327 2.34453 0.0435141 -0.00911348 0.0114984 
227 1 7.5405 1.53792 0.705285 0.000912134 0.00697704 0.00656693 
237 1 9.01985 1.35253 1.29438 0.017319 -0.0252288 -0.008493 
234 1 9.71065 1.94589 0.235128 -0.00474473 -0.00344601 -0.0151789 
246 2 10.5886 2.39186 0.533196 0.0263927 -0.0359748 -0.0862684 
301 1 -10.0613 -11.4386 13.4902 0.0071371 -0.00245324 0.00244533 
315 2 -10.2252 -10.3903 13.1392 0.0691419 0.133996 0.0309883 
302 1 -7.50657 -11.1622 13.5841 -0.0134702 -0.00149981 -0.011373 
295 1 -8.53187 -11.9459 13.4794 0.0128788 0.00105696 0.0164872 
561 1 -4.05376 9.26353 25.6898 0.00414593 -0.00241726 0.00285279 
35 2 -5.45241 -10.4863 12.6329 0.00888121 0.0161089 0.0415314 
317 2 -4.43896 -9.9965 16.808 0.0162816 -0.0766815 -0.0428704 
309 1 -5.19318 -9.98665 16.0239 -0.0164719 0.0086376 -0.0125375 
297 1 -5.54282 -10.3434 15.0073 -0.00658287 0.000867587 -0.00387457 
305 1 -6.05333 -10.7324 13.6055 -0.0253058 0.00739111 0.000262576 
554 1 -8.85574 10.1798 24.6765 -0.0151521 0.0160062 -0.0379005 
432 2 -9.8773 9.88374 24.8158 0.0697801 0.0273358 0.118885 
553 1 -8.16355 11.1902 22.3964 -0.0153433 -0.0338761 0.0310734 
547 1 -7.8601 10.4607 23.5333 8.96586e-05 0.01543 0.00641055 
546 1 -4.0449 8.96359 24.3271 0.0263631 -0.00508257 0.0140118 
548 1 -7.19645 11.6337 21.4465 -0.00229489 -0.00129618 -0.006482 
136 2 11.8604 8.46236 23.6544 0.0712404 0.081844 0.0656137 
556 1 -4.93582 10.9172 20.9197 -0.00728597 0.0187561 -0.00152823 
555 1 -6.12369 10.6367 21.591 0.00143954 -0.000129454 -0.0317454 
542 1 -5.78803 9.64907 22.7476 0.0147318 -0.0068582 -0.0169749 
544 1 -4.81912 8.98742 22.9477 -0.0189671 -0.0205837 0.00194321 
559 1 -4.48252 9.55358 20.7493 -0.043321 0.0138411 0.0150553 
541 1 -6.44559 10.1735 23.9421 -0.0178171 -0.00553191 0.00625058 
550 1 -4.16472 8.51843 21.5001 -0.0207618 -0.0271041 0.00379839 
571 2 -3.72863 7.54197 21.7032 0.0212809 0.0807402 -0.0128771 
568 2 -5.24081 11.6771 20.2274 -0.0449429 -0.0891183 0.0950968 
576 2 -2.6862 4.82455 26.853 0.109548 0.00113684 -0.0524835 
532 2 -4.16016 3.35617 26.6748 -0.0174906 0.0360017 0.0844253 
562 1 -3.68668 4.48578 26.3774 0.00641249 -0.015949 -0.00134008 
564 1 -4.1955 5.21599 25.2949 -0.00831458 -0.0388361 -0.0240818 
421 2 -5.20253 5.08135 25.4127 0.00639631 -0.0223719 0.1006 
573 2 -2.03511 6.26124 24.3644 0.0113802 -0.0130961 -0.0325268 
557 1 -7.91499 9.9951 25.7726 -0.0172313 -0.00030998 0.011128 
549 1 -6.87098 9.6699 26.6567 0.00131207 -0.00168645 0.0345266 
566 2 -6.76827 9.97854 27.5748 -0.0198232 0.089253 -0.0445002 
569 2 -4.23992 10.3348 27.0189 0.0919259 0.0107583 0.013849 
543 1 -5.79256 11.0231 24.8396 -0.00675697 -0.0234355 -0.0161098 
558 1 -5.28747 9.97202 26.1068 -0.00010994 0.00551446 -0.0221887 
545 1 -3.07027 6.34929 24.8593 0.0107302 0.0125255 0.00465372 
551 1 -3.87539 7.405 24.3714 0.000678643 0.0194893 -0.00518206 
565 2 -9.05981 11.7956 22.5341 0.011149 0.0328022 0.0556664 
250 2 11.9698 11.3498 29.5732 0.124864 0.0495568 -0.0396584 
172 2 -4.20895 23.3805 4.99295 -0.0564596 0.00934817 0.109987 
499 2 -11.524 26.1327 11.056 -0.0857091 -0.0525155 0.00796534 
316 2 -10.5933 35.7945 11.5811 0.000535572 0.0422849 -0.0389827 
383 1 -11.0529 27.6322 2.72317 0.00501512 0.0288001 0.00968397 
372 1 -10.8667 27.042 3.95518 0.021705 0.000786856 0.00941577 
392 2 -10.7225 28.3792 1.92894 -0.0136947 0.0647555 -0.000527527 
396 2 -9.2491 26.4444 4.23963 -0.048169 -0.0450948 -0.0500965 
384 1 -9.78312 26.7458 4.99003 -0.00166213 -0.0193401 -0.0090086 
299 1 -5.22336 23.3235 5.74505 -0.00126159 0.00608478 0.0238946 
178 2 -5.87471 22.846 5.00728 -0.0459069 0.0874656 -0.0272074 
173 2 -9.64976 18.0341 11.6432 -0.0618977 -0.00957992 0.0667104 
147 1 -9.50543 21.1887 10.3134 0.0269214 0.00680424 -0.00508501 
153 1 -9.8978 19.9191 10.8098 -0.0359361 -0.000895161 0.0158863 
161 1 -9.27079 18.7351 10.7341 0.0223187 -0.0240012 0.012228 
149 1 -9.81354 22.6153 10.7414 0.00161873 0.010751 -0.0238279 
158 1 -8.58036 18.7772 9.73211 0.00447059 0.00159829 0.00233495 
145 1 -8.56339 21.1101 9.29882 -0.0127228 0.00321595 -0.019092 
151 1 -8.15791 19.6785 8.97282 -0.0226281 0.0119583 0.0184055 
157 1 -6.90303 19.892 7.96219 0.00159212 0.00281471 -0.00350717 
146 1 -8.15823 22.4474 9.07932 -0.0114697 -0.00969781 -0.000184134 
152 1 -7.28446 22.4912 7.97924 0.00389741 0.0082503 -0.000293654 
159 1 -6.92549 21.2392 7.40582 -0.0400345 -0.00211357 0.00748683 
312 1 -10.2288 28.3039 11.1908 0.0227477 -0.0134694 -0.0165866 
150 1 -9.28485 23.9353 10.2467 -0.00463209 -0.0144945 -0.00726309 
148 1 -8.02438 23.8667 9.72432 -0.00514202 -0.0129164 -0.0106604 
371 1 -11.1873 27.5911 6.63789 0.00338375 -0.0155788 0.0104953 
169 2 -6.14048 20.9007 6.67249 0.0289111 0.0121485 -0.0199235 
171 2 -6.3449 19.0831 8.72851 0.023541 -0.0148724 -0.000878638 
393 2 -9.02588 29.3807 7.46345 -0.0450941 -0.0799391 -0.0279043 
175 2 -10.5178 24.0624 9.98065 0.0472437 -0.0560787 0.0114748 
390 2 -7.67979 28.5319 6.46515 0.0223531 0.0329863 -0.0136444 
164 1 -8.64988 28.2159 7.00173 0.000309585 -0.0281662 0.00494113 
382 1 -9.67283 27.2094 6.25002 -0.0214438 -0.0160387 -0.0218452 
163 1 -5.70757 23.7777 6.71712 0.0343949 0.0223622 -0.005807 
154 1 -7.51121 24.6032 8.46674 -0.0249583 -0.0167943 -0.00493703 
160 1 -6.93613 23.8799 7.54432 0.0266394 -0.0143601 0.00293744 
166 1 -7.62728 26.0653 8.69215 0.0375878 -0.0183315 -0.00626374 
167 1 -8.35631 27.0386 7.83165 0.0119647 0.00698069 0.00535612 
168 1 -7.66257 26.2287 10.2941 0.026834 -0.00880001 -0.0173847 
156 1 -6.98659 26.634 11.3386 -0.0135257 -0.0290859 -0.00902261 
381 1 -11.5051 28.0499 8.07269 -0.00566646 -0.0155279 0.00243597 
180 2 -6.50865 27.1444 9.74734 0.0066669 -0.0412783 -0.00518586 
324 2 -10.8249 28.8048 10.4452 -0.046039 -0.0683072 -0.0254554 
155 1 -10.99 22.75 11.8337 0.00463009 0.0128794 0.019591 
487 1 -11.9267 25.2749 11.6805 -0.021255 0.0128685 0.00615657 
26 2 -11.3466 24.5108 18.0058 0.0197192 0.0189443 0.0255973 
18 1 -10.5275 23.8405 17.9761 -0.0201913 -0.00499769 0.0159302 
483 1 -11.562 21.6335 13.8439 -0.0182834 -0.000599798 -0.000588541 
165 1 -10.8591 21.4628 12.5724 -0.0067729 0.021837 0.00583835 
21 1 -9.40276 24.7492 17.9902 0.0222786 -0.000270613 0.0319825 
484 1 -11.4102 23.9598 12.444 0.0180699 -0.006917 -0.0109251 
476 1 -11.7765 23.9446 13.8234 -0.0240664 0.00334981 -0.0105455 
303 1 -11.0199 35.4786 12.6585 0.00863271 0.0364595 -0.00243879 
162 1 -9.93669 20.1824 12.1787 -0.00567187 0.0134068 0.0152467 
493 2 -11.7608 20.4667 13.8723 0.0220656 0.00791759 -0.0649472 
319 2 -11.4063 30.6166 13.094 0.0373973 -0.0763084 0.0604581 
481 1 -11.9614 22.6919 14.5434 0.00173721 0.0303394 0.0181511 
30 2 -9.27564 25.9469 17.7925 -0.089522 0.0556346 0.0165194 
314 2 -11.2401 27.2024 13.547 -0.0314152 -0.0675401 -0.0344864 
567 2 -7.34137 12.5357 20.5712 -0.115856 0.017161 0.00491603 
311 1 -9.13594 28.5043 12.0132 0.012029 -0.0216449 -0.00931953 
308 1 -9.20664 29.7141 12.5337 0.0101365 0.00509301 -0.0211698 
304 1 -10.931 32.8977 12.7852 -0.000323889 0.00257116 -0.0258308 
296 1 -10.2488 34.0131 12.7199 0.0230355 -0.0301794 0.00685265 
292 1 -8.73411 32.0801 13.6835 -0.00247299 0.0134066 0.0164281 
294 1 -8.33257 32.097 15.1753 0.0194794 -0.0177235 -0.0178103 
289 1 -8.07111 34.6257 13.0253 -0.023054 0.00674514 0.00698856 
291 1 -6.76791 34.4274 12.9054 -0.000699732 -0.0021308 0.0216271 
290 1 -8.97236 33.5918 13.5203 -0.00142424 -0.00915246 -0.0210757 
293 1 -7.23373 32.8742 15.806 -0.0180323 -0.0115463 -0.0145961 
320 2 -9.00358 31.6062 15.7328 0.0831698 -0.00807981 0.00731313 
298 1 -9.55797 30.8381 13.3186 -0.00254786 0.0137403 0.0292802 
300 1 -6.3682 33.5565 16.3956 0.0244689 -0.0111022 -0.00273914 
323 2 -6.59262 34.7072 16.5071 -0.0752253 0.00292958 0.0200052 
321 2 -5.30007 33.4936 16.3913 0.0335117 -0.0199832 0.0136763 
307 1 -10.867 31.5395 13.3975 0.00064196 -0.014068 -0.00170795 
174 2 -9.05295 19.9225 12.8357 0.0269447 -0.0471492 0.0623272 
552 1 -4.90979 13.349 25.2241 0.0227025 0.00457432 -0.0122973 
310 1 -5.57811 34.3499 13.4074 0.0304405 0.00171449 0.00374791 
322 2 -3.86662 33.6831 14.875 -0.029098 0.0488798 0.000188901 
306 1 -4.47199 34.3603 14.2089 0.00783725 0.00182345 -0.00121928 
9 1 -10.0356 22.5754 18.4299 0.0113796 0.00821106 0.00727255 
11 1 -8.62158 24.1348 19.0343 -0.00933274 0.00343603 0.0270303 
22 1 -7.67605 24.8444 19.9147 0.00499801 0.0279244 0.00491494 
572 2 -5.26178 14.4754 26.6331 0.0298023 0.0958955 -0.00206173 
3 1 -10.7445 21.3939 18.879 -0.013055 -0.00892139 -0.000346705 
5 1 -8.96135 22.822 19.3434 -0.00621793 -0.0210947 -0.000332631 
31 2 -9.99308 20.1845 23.933 -0.0449495 -0.0626439 0.0708499 
1 1 -11.8454 20.1178 20.9468 0.016404 0.0264316 -0.00812804 
16 1 -11.6247 19.9812 22.4226 -0.0160215 0.0119727 -0.00166296 
2 1 -10.7534 20.9214 20.3648 -0.0100297 0.0319943 -0.023432 
4 1 -9.58454 21.1715 20.9809 0.0178535 0.00542648 0.02506 
19 1 -10.408 20.4581 22.7942 -0.000450461 -0.00198452 0.0248634 
10 1 -9.21728 20.9003 22.4139 -0.0130241 0.00430446 0.0211945 
6 1 -8.59244 22.045 20.4164 0.0159842 0.0160929 0.00201146 
20 1 -8.2304 21.3036 23.3791 -0.00827808 -0.0192993 0.0294389 
32 2 -8.33272 21.5043 24.4612 0.0475736 -0.0834427 0.0158031 
23 1 -7.18788 22.1562 22.773 -0.000990546 0.00543215 -0.00583128 
12 1 -7.90924 22.755 21.5468 -0.000752892 0.00388924 -0.000625322 
24 1 -7.56938 24.2881 21.3033 -0.0109772 0.0241009 0.0149942 
36 2 -6.62626 22.7935 23.3968 -0.0382395 0.136371 -0.0203875 
34 2 -6.77816 24.1082 21.9763 0.0218467 -0.0244404 0.0370543 
503 2 7.00251 33.5022 20.7392 -0.0161623 0.064335 0.0129706 
177 2 -3.79919 14.9311 25.1714 -0.0220999 0.0366065 -0.0385459 
563 1 -4.62686 14.3573 25.8108 -0.0193589 0.00142698 0.0254797 
560 1 -5.2219 12.1508 24.5347 0.00374173 -0.0214203 -0.00903463 
472 1 -11.9296 26.5727 14.15 0.00386975 -0.00796143 -0.0211009 
360 2 34.3356 10.0132 10.5063 -0.0375779 -0.00153203 -0.0749985 
348 1 34.5271 10.0148 11.7097 0.00154718 -0.00340304 0.00421726 
71 2 19.9698 4.75586 13.3243 -0.0927089 0.0280904 0.0435349 
504 2 20.0246 4.17444 13.4908 -0.00421112 -0.000853938 -0.066965 
204 1 35.2435 1.38376 18.2547 0.00678664 -0.0147875 0.0125826 
212 2 34.8441 1.19407 19.2831 0.0442147 -0.00885146 0.0609307 
423 2 16.4637 11.7467 22.2169 -0.0634896 -0.00983666 0.0310733 
342 1 34.9934 7.47283 15.9509 -0.0044566 0.00215534 -0.00987635 
216 2 34.3635 6.61515 13.9873 0.0172523 -0.00835298 -0.0352182 
345 1 34.8758 7.46527 14.6147 0.00989709 0.0181494 0.00133027 
335 1 35.0649 8.83746 13.8827 -0.0117772 -0.0126912 -0.0129901 
346 1 34.7244 8.90715 12.4758 0.0264032 -0.00876078 0.00213902 
329 1 35.0519 10.1373 14.6232 -0.00389286 -0.00479212 -0.0185985 
330 1 34.5285 11.2506 13.8862 0.0335924 0.0351786 -0.0116095 
336 1 34.4135 11.2512 12.4876 0.00491611 0.00669849 0.00973269 
327 1 35.2104 10.1635 16.1413 -0.0017797 0.00808473 -0.0157266 
325 1 34.9137 11.4648 16.8681 0.0101112 -0.0173444 -0.0191976 
333 1 35.2178 8.87436 16.8448 -0.00999561 -0.00297633 0.011116 
430 2 12.7709 7.81136 26.9468 -0.106761 -0.00527798 0.0174278 
497 2 17.7806 11.9227 19.0376 0.0391379 0.0370455 -0.00882739 
405 1 12.5046 8.86432 26.9846 0.000189116 -0.0111945 0.025671 
422 2 14.4268 7.41094 20.7591 0.0900292 -0.0776237 -0.0126378 
429 2 13.2272 7.48697 23.3878 0.0077495 -0.0235659 -0.0190424 
354 2 35.0186 6.51912 16.4946 -0.0106354 0.0104787 0.10717 
397 1 15.2077 10.6343 23.8882 -0.00336784 -0.0285225 0.0022461 
417 1 13.6417 8.43465 23.7362 0.0148639 0.00554572 0.0046515 
403 1 14.3342 9.58917 23.1826 0.000344784 -0.0137015 0.0073077 
413 1 14.6984 8.8654 22.0383 0.0182157 0.00664044 0.00376862 
29 2 16.4117 9.7901 19.4332 0.00030908 0.0450717 0.017742 
410 1 15.4384 9.47187 19.8331 0.0202218 -0.0112141 0.00229679 
14 1 14.8691 8.36906 20.9011 0.00272405 0.0084924 -0.00416605 
331 1 34.9373 11.4461 18.5866 -0.0163779 -0.00210433 0.0199206 
466 2 30.4068 -6.69127 30.5439 -0.0375564 -0.0125528 0.0716507 
105 2 30.3812 -7.23171 31.3784 0.0451557 -0.0193575 0.050076 
414 1 12.954 9.43094 25.624 0.0199485 0.0233131 0.0219598 
407 1 12.3935 9.07251 24.3379 -0.000434251 0.0306018 -0.011902 
17 1 14.6151 11.2989 25.1982 -0.00581299 -0.0386166 0.00710456 
399 1 13.5005 10.8269 25.9397 0.0270534 -0.01568 0.00316282 
409 1 15.8645 11.6387 23.1391 0.0231405 -0.00615008 0.0256224 
353 2 35.1097 7.9849 18.3027 -0.00361425 -0.0842071 0.0598325 
418 1 12.6958 11.0426 28.6742 0.0274155 -0.02194 -0.0255343 
420 1 12.6422 9.93425 27.8595 0.00572379 -0.0252974 0.0215972 
341 1 34.9895 9.02381 18.2193 -0.0174562 -0.0077998 0.00159189 
338 1 35.3477 10.1437 19.0471 -0.0220382 -0.0125541 0.0210783 
350 2 35.4355 9.85225 20.2327 -0.0100156 -0.0600661 0.0511396 
358 2 34.5803 7.83211 12.0815 0.0423217 -0.00851184 0.0752328 
347 1 33.9271 12.4678 11.6441 0.0130666 -0.0190735 0.00111327 
64 2 23.6965 24.4463 10.8415 -0.0625582 -0.0694499 0.0367604 
210 2 18.3485 27.8136 8.00977 -0.029364 -0.00394928 -0.00923754 
359 2 33.4935 12.5583 10.7722 -0.0591945 0.0755251 -0.0627697 
170 2 23.907 24.508 10.2336 0.10869 -0.12899 -0.0648681 
284 2 17.4821 27.8731 8.06991 0.076254 -0.133221 0.00967784 
356 2 33.7965 14.6226 11.8289 -0.00298839 -0.0361019 -0.0199892 
343 1 34.1771 14.9465 14.5164 0.0145371 -0.0151216 0.0213975 
328 1 34.4764 12.4943 14.6597 0.0146603 -0.00863158 0.0139152 
334 1 34.2162 13.5712 13.893 -0.0161224 -0.00959329 -0.0120612 
344 1 33.9336 13.7225 12.3578 -0.0267911 0.00126074 0.00111598 
68 2 33.4999 15.5557 13.6984 -0.0471458 -0.00835083 0.0120006 
326 1 34.4894 12.5901 16.1611 -0.00663204 -8.77428e-05 0.0116144 
340 1 34.4231 15.0198 15.9325 -0.0122234 0.00632432 0.0175898 
332 1 34.2332 13.8774 16.9722 -0.0126166 0.0116871 0.00837558 
318 2 30.9079 29.2523 26.2965 0.0578166 0.0261251 -0.0727197 
389 2 30.9878 28.8948 26.444 0.0519388 0.0590321 -0.0590524 
412 1 15.8409 14.795 24.608 -0.0121763 0.00679323 -0.000232756 
427 2 15.4495 13.6139 21.7898 -0.0124739 -0.0621123 -0.0421284 
406 1 16.0102 15.4505 23.4008 0.008045 0.0198466 0.0137424 
404 1 15.0801 13.6308 24.076 -0.0111275 -0.000382741 0.00774684 
411 1 15.3417 13.058 22.7025 0.015433 0.0165556 -0.00141165 
431 2 17.892 15.1393 21.2754 0.0125274 0.105402 -0.0178307 
419 1 17.6817 16.1237 21.3948 0.00237347 0.0154971 0.0110187 
416 1 16.8658 16.4903 22.4513 -0.00510068 0.0119611 0.026683 
428 2 16.9285 17.6412 22.8982 -0.0152653 0.136106 0.00216245 
339 1 34.1015 13.6398 18.2978 0.0189097 0.0124355 0.00064191 
351 2 33.6685 14.781 18.4973 -0.0945059 -0.0435844 -0.132085 
337 1 34.8353 12.6133 19.2694 0.00530984 0.0356659 -0.00174157 
349 2 35.016 12.7989 20.336 -0.0983928 -0.105056 -0.0298926 
282 2 34.9913 13.9793 33.7188 -0.00144413 -0.0115809 -0.0609723 
426 2 12.678 13.261 29.7227 0.0205886 0.0456309 0.0166634 
424 2 15.1068 15.2991 25.263 0.0057671 0.0399528 -0.0570123 
398 1 14.5284 12.729 24.9322 -0.00699434 -0.000505901 -0.0179014 
425 2 13.5921 14.9752 26.3817 -0.0409345 -0.049441 0.0203263 
415 1 13.8923 13.2621 26.3541 -0.0210141 -0.0363704 -0.0261073 
400 1 13.5574 14.0742 27.4366 0.00309816 0.00884507 0.00130801 
402 1 12.8636 13.4582 28.5162 0.00630067 0.0222246 -0.00118242 
135 2 34.8154 13.7446 33.2909 0.124435 -0.0241974 0.0417212 
408 1 12.7566 12.0964 27.8123 -0.00148343 0.0045437 0.0199815 
401 1 13.056 12.062 26.4927 -0.0156183 0.00462993 0.0235365 
116 1 46.2424 -1.81186 -7.86868 0.0298653 -0.00974986 -0.0109344 
124 1 45.2326 -3.00062 -8.30817 0.0121742 0.0179637 0.00590604 
205 2 44.6447 -2.50971 -7.49008 0.00668903 0.0260937 -0.0357783 
112 1 46.4889 -1.19182 -10.0159 -0.0185826 0.00676058 0.0119042 
123 1 46.6149 -1.32722 -6.47285 0.014847 0.015806 0.00422265 
127 1 45.1739 -3.12833 -9.76058 -0.0374054 -0.00715828 0.0293543 
118 1 45.2853 -1.87642 -10.4178 0.0184012 -0.0198634 0.00471565 
128 1 44.1264 -1.16382 -11.1841 -0.0176829 -0.0219681 -0.0017618 
533 2 58.1342 10.1269 7.48316 0.0120989 -0.0720761 0.107244 
33 2 57.0399 0.207356 -4.46742 0.121508 0.0841379 0.0654686 
122 1 52.5256 0.513504 -10.7508 -0.0269909 0.000821097 0.00211112 
109 1 48.5279 -1.12687 -9.03368 -0.00373809 0.0089255 -0.0187343 
113 1 48.4346 -1.00338 -11.295 -0.0288083 -0.0141689 0.00151588 
114 1 47.2213 -1.15853 -11.2013 -0.00994178 -0.00210074 -0.0305963 
110 1 47.1432 -1.30554 -8.88893 -0.0133316 0.00210817 -0.0130752 
115 1 48.9895 -0.918537 -7.64542 -0.0269767 0.00845777 -0.0085372 
117 1 50.5636 -1.03531 -10.9469 -0.00483049 0.00612593 -0.014336 
111 1 49.1787 -1.04505 -10.3078 -0.00583419 -0.00120942 0.0149027 
121 1 48.0155 -1.0584 -6.67162 -0.0192163 -0.0509797 0.00646863 
125 1 51.6342 -0.251998 -10.7313 0.0139016 -0.00290996 -0.0020004 
126 1 50.9703 -2.01045 -11.9501 -0.0067182 0.0408332 0.0160187 
139 2 50.0191 -0.937549 -7.84214 0.0211426 -0.0413394 -0.0871858 
287 2 56.9817 -0.62764 -4.29898 0.0547905 -0.00797003 0.00583115 
525 1 57.6822 11.7131 9.52507 -0.00353589 0.00516278 -0.0240232 
485 1 50.2142 4.08551 -8.62264 0.01406 -0.0018586 -0.0134961 
498 2 50.9484 3.48335 -8.04369 -0.0564161 0.0463299 0.0191945 
108 2 49.4806 3.58002 -9.23345 -0.0223341 0.0619953 0.0916628 
134 2 53.5251 1.07719 -10.5025 -0.103125 0.112357 -0.00866792 
494 2 51.3494 5.15503 -9.25023 0.0321476 -0.116368 0.0463537 
482 1 50.3683 5.53222 -8.59846 0.0363419 -0.00670986 -0.00928749 
496 2 46.5396 -1.89321 -5.60739 -0.0327928 -0.0591536 -0.0471653 
99 2 49.136 6.28104 -7.44324 -0.00561032 -0.0271904 -0.0815562 
475 1 50.1045 6.53771 -7.39234 0.0146487 -0.0186135 0.0113819 
100 2 49.6812 8.67212 -3.47456 0.0185395 0.0117413 0.000636337 
85 1 50.2032 8.19683 -4.19635 -0.00960687 -0.0169499 -0.0154037 
80 1 50.7646 7.50079 -5.0815 -0.0101056 0.00921779 -0.0200331 
87 1 50.4882 7.01953 -6.23629 0.00143606 -0.0437565 -0.0223048 
394 2 51.1858 4.82057 9.78166 -0.0971464 0.0149534 0.0254828 
144 2 50.8984 5.07835 10.7927 0.0552827 0.0409591 0.089107 
521 1 57.8248 8.35917 9.16677 -0.0115235 -0.0183053 0.0111952 
522 1 58.5728 10.7222 9.46134 -0.0275341 -0.0038621 -0.00394123 
507 1 59.6997 10.9267 10.4892 0.00456482 -0.00956077 0.00643323 
513 1 58.0195 9.65742 8.58055 -0.00140077 0.00403719 0.00175542 
511 1 59.4848 8.62309 11.1951 0.00213485 -0.00976629 0.00324718 
518 1 58.6302 7.79713 10.3355 0.00373381 0.00571824 0.00388108 
530 2 57.9722 6.87516 10.3963 -0.056904 -0.148013 0.0439973 
140 2 43.0558 -1.51907 -11.3522 -0.0486041 0.0311299 -0.0421252 
534 2 56.6529 12.009 9.48809 -0.100124 0.0705254 0.0198636 
505 1 59.8142 10.0096 11.5219 -0.0136254 -0.00312342 -0.00273424 
138 2 51.7926 -2.70181 -11.679 0.0619452 -0.021106 0.089529 
133 2 43.4323 -2.22872 16.5627 0.0434717 -0.00976801 -0.0233765 
198 1 42.8378 -1.40369 16.091 0.0145703 0.00188129 0.00206308 
214 2 41.3562 -2.58117 15.2649 -0.088709 -0.00120637 0.0331382 
201 1 41.4337 -1.56757 15.2973 0.0297037 0.00860503 0.0180336 
189 1 42.7186 -0.386785 16.8949 0.0242965 -0.00779098 -0.0311079 
182 1 41.3843 3.07487 17.0096 0.0239578 -0.00525224 0.00434332 
181 1 42.1043 1.83961 17.5936 0.00538853 -0.00318327 -0.000166148 
184 1 40.0941 2.76688 16.7205 0.000614703 -0.0067024 -0.0137356 
186 1 39.7509 1.56941 16.1398 0.00277111 -0.0200512 -0.00575458 
183 1 41.9454 0.741886 16.5621 -0.0151405 0.00827467 0.00434614 
185 1 40.5946 0.367011 16.101 0.0220989 -0.00306524 0.0252369 
191 1 40.473 -0.591243 15.0025 -0.0185746 -0.00537839 0.00552617 
203 1 38.23 1.87891 16.0487 -0.00765395 0.016435 -0.00325374 
192 1 37.2633 1.4741 16.7823 -0.0105787 0.00465627 0.00166543 
213 2 39.6377 -1.00712 14.6384 -0.0211804 -0.0289108 0.06914 
190 1 39.2627 3.84013 16.3748 0.00869366 -0.0372541 -0.00908853 
200 1 38.1313 3.26694 15.6658 0.0149129 -0.00701368 0.0177271 
215 2 37.1251 3.68958 14.9931 0.0518741 0.0395774 0.00841913 
199 1 39.6991 5.16506 16.3455 -0.021476 0.0104624 0.00549547 
196 1 40.7342 5.66505 17.2884 -0.00505203 -0.0265038 -0.0432039 
188 1 41.7741 4.54227 17.3011 -0.0158298 -0.00828508 -0.00263115 
202 1 36.1049 1.44217 17.4098 -0.0116444 -0.00758038 0.00956454 
211 2 38.9701 5.5476 15.3822 0.050509 0.0332393 0.0378658 
142 2 49.0884 -0.491293 33.3092 0.00787426 -0.00749735 0.00297121 
529 2 59.6921 7.06146 12.0035 0.0519726 -0.0663683 0.0102226 
129 1 49.9977 -2.51166 35.2005 -0.00701459 -0.027157 0.00462261 
141 2 50.0473 -3.68427 34.792 -0.144414 -0.0566593 -0.0213365 
209 2 43.1836 -1.10574 19.203 0.0159224 -0.000991314 0.0361227 
197 1 43.5211 -0.437321 18.4446 -0.00592572 -0.0112316 0.000271182 
206 2 44.066 1.11144 20.1407 0.025974 -0.00714614 -0.0322829 
194 1 43.9172 0.796232 19.1531 0.0217818 0.0235451 -0.00308429 
187 1 43.2361 2.09838 18.5102 0.016202 0.000492955 0.0113297 
195 1 42.7062 4.52896 18.3271 -0.0053446 -0.0242219 0.0038408 
193 1 43.603 3.4998 18.7594 0.00734942 -0.00150997 0.0191537 
208 2 44.3183 3.57694 19.6512 -0.0525254 -0.0204633 0.0321155 
207 2 43.0167 5.59892 18.3863 -0.0342237 0.0624135 -0.0290459 
130 1 48.5886 -0.726159 34.2848 -0.0152794 0.0158585 0.00891963 
132 1 47.4008 0.02546 34.6641 -0.0162519 0.0171308 -0.0102402 
143 2 44.7939 0.042564 34.9672 -0.0520483 -0.0233779 -0.100198 
119 1 48.9643 -1.46832 35.2513 0.00565334 0.0186007 -0.0112102 
131 1 44.9773 -0.801374 35.6645 -0.0172743 -0.00026269 0.0173101 
120 1 46.4504 -0.764513 35.5767 -0.0111126 0.00193781 0.00387837 
54 1 45.304 17.9094 -10.3647 -0.0029387 0.00128256 -0.00816358 
60 1 45.7346 17.5002 -11.6491 -0.00564375 -0.00721345 0.00324122 
69 2 45.3929 17.5074 -9.28854 -0.00846341 -0.057508 0.0497711 
66 2 43.2801 19.1474 -8.8571 0.00822841 -0.0254857 -0.0317239 
47 1 42.6162 20.2694 -10.6289 0.000806433 0.0146319 -0.00679088 
57 1 43.691 19.6797 -9.72922 0.010013 0.00555762 0.0191738 
58 1 44.5811 19.1808 -10.7332 -0.0063909 -0.020515 -0.0054328 
45 1 42.6569 20.9736 -11.8493 -0.00830268 0.0157702 -0.00694908 
528 1 58.2146 14.6496 11.8587 -0.0151454 -0.0249193 -0.00211533 
352 2 57.6125 21.233 6.64648 -0.0808005 0.0329258 0.0959232 
570 2 51.8948 18.1044 2.44354 0.0219747 0.020263 -0.00605996 
385 2 52.4304 18.1225 2.92851 0.0416524 -0.0341558 0.0632696 
538 2 56.7519 14.0665 9.8447 -0.0484647 -0.0424858 -0.066425 
574 2 58.4345 21.2212 6.44865 0.00551266 -0.0529477 -0.0112161 
509 1 59.5235 12.3676 10.7278 0.0103936 0.00336252 -0.00791443 
539 2 52.7467 23.1178 -8.11006 0.0581555 0.0669457 0.0907392 
526 1 57.8203 14.1529 10.512 -0.000497271 -0.00257333 -0.00554279 
515 1 58.4399 12.9905 9.99896 0.00349249 -0.00553588 -0.0152812 
540 2 41.8515 13.5673 8.21775 0.0831301 -0.0802119 -0.0316976 
537 2 41.7358 13.0831 7.62009 0.0378032 0.0148312 -0.0380425 
179 2 51.9875 23.2936 -7.50408 0.0654429 -0.0994173 0.0231229 
510 1 59.9017 12.9648 11.8408 0.0106756 0.0186872 0.00285128 
516 1 59.4268 14.2917 12.6911 0.00436223 -0.00880753 -0.00333089 
53 1 41.8506 24.7661 34.3791 0.00122573 -0.00414613 0.0139052 
176 2 56.8826 15.0653 25.3772 0.0119344 0.0113734 0.0140359 
48 1 45.8901 16.7613 35.2285 0.0176692 0.00791541 -0.000762222 
49 1 45.2476 24.0645 34.1193 0.000174804 -0.0157629 0.0137615 
56 1 46.3956 18.0897 34.3955 0.0287773 0.00385211 -0.00756892 
40 1 46.3416 20.5134 34.351 0.00838168 0.000669219 -0.00354374 
38 1 45.7882 21.8297 34.4466 -0.0109539 -0.00639992 0.00990527 
42 1 45.5827 19.2624 34.8591 -0.0169659 -0.00350065 0.00376716 
37 1 44.3802 22.1304 34.8697 -0.0129637 0.00847533 -0.00557053 
43 1 44.0385 23.4521 34.7026 0.0109752 0.00699062 -0.000526268 
51 1 47.46 23.2829 33.224 0.0146906 0.0265639 0.0167593 
44 1 46.1201 23.1639 33.6051 -0.0207185 -0.0133869 -0.000585722 
46 1 47.6031 20.0572 33.7185 0.0331085 -0.000499627 -0.00473074 
59 1 47.615 18.622 33.8196 -0.0334319 0.00772908 0.0213443 
39 1 44.0304 20.9989 35.7693 -0.00293492 0.0117992 -0.00145582 
52 1 48.3267 22.2583 32.9405 -0.0151868 -0.0189123 -0.00876746 
72 2 48.401 17.7601 34.1156 -0.0718491 -0.0250106 0.0489631 
55 1 48.6666 20.8444 33.1413 -0.00475326 -0.000955457 -0.0172298 
67 2 49.6281 20.4737 33.352 -0.00602403 -0.0174609 0.0657222 
62 2 41.2577 25.5708 34.7687 -0.0648009 -0.0477841 0.0643667 
50 1 42.9641 24.3321 34.7836 -0.00418956 -0.000895396 -0.0411928 
248 2 56.1903 14.4031 25.6191 0.0754223 0.043368 0.0654018 
61 2 41.5989 24.6101 33.3673 0.0584816 -0.122989 0.106062 
63 2 47.6116 24.3566 32.8004 0.0567879 0.0302966 0.0284028 
41 1 44.5563 19.6579 35.9514 0.0302272 -0.00906273 -0.00845405 
65 2 41.7454 21.5938 35.6062 0.0104321 0.0951821 -0.0508241 
527 1 59.8624 14.4836 13.9788 0.00795304 -0.00510222 -4.18201e-05 
278 2 61.917 1.51011 -5.52351 -0.0941755 0.0491054 -0.0028982 
81 1 74.805 -8.88773 -1.41452 -0.0144589 0.0259922 -0.00832552 
90 1 73.4067 -8.23756 -1.6769 0.0220282 -0.00434193 0.00826591 
93 1 72.8817 -7.3096 -0.726251 0.00747395 0.00954026 0.0146966 
79 1 76.8399 -10.4185 -0.323074 0.0133988 -0.00233776 -0.00289478 
75 1 74.9849 -8.58647 -0.0600747 -0.0222386 0.00821219 -0.0206904 
86 1 76.4078 -10.9784 -1.53425 0.0151599 0.0158162 -0.00218672 
89 1 75.0977 -10.0925 -1.93986 -0.023109 -0.0136045 0.00416611 
83 1 73.9613 -6.50645 0.038413 -0.00970453 0.00693561 0.0120083 
283 2 61.5772 1.15634 -4.95547 -0.0331049 -0.0405834 0.0164303 
104 2 71.5222 -11.1383 1.41875 0.00201531 0.00129904 0.0615314 
107 2 69.9043 -8.28494 2.05876 -0.0314037 0.014425 -0.100675 
97 2 77.3763 -10.9014 0.453085 -0.00503147 0.0448547 0.0473748 
73 1 75.9268 -9.47982 0.312536 0.00092709 -0.00871418 -0.00272263 
94 1 73.0535 -5.70663 0.818911 -0.00401498 -0.0423831 0.00528923 
96 1 72.1456 -6.42529 1.65925 0.000206525 -0.00832185 -0.0121305 
84 1 72.3141 -7.90883 1.9759 -0.00495495 -0.00351475 0.00826128 
78 1 73.6865 -8.26506 1.74497 -0.0278686 0.0118558 0.0235618 
77 1 74.4874 -7.67788 0.64084 0.0205813 0.0403133 0.00264702 
76 1 74.0335 -9.71436 1.87198 -0.00330098 -0.00866973 0.000498462 
95 1 71.1591 -8.8202 2.19658 -0.0166609 0.0139156 -0.0182597 
74 1 75.1363 -10.3118 1.39297 0.0159353 -0.0289412 -0.0169708 
92 1 71.5777 -10.1641 2.13567 -0.0123449 0.0147176 -0.0209574 
82 1 72.8629 -10.2828 2.80311 0.00846813 -0.0114528 0.0109314 
91 1 72.9825 -11.5836 3.58441 -0.0114523 -0.0175762 0.00224443 
355 2 75.3473 -11.3772 1.57094 0.0593197 -0.0837754 -0.00550696 
102 2 72.731 -4.63648 0.782097 0.0670222 -0.0358737 -0.0428915 
106 2 71.4762 -5.61823 2.01865 0.0649268 0.00794641 -0.0295619 
279 2 75.2189 -1.69822 7.40265 -0.083089 0.028051 0.05763 
267 1 76.1389 -0.770059 7.59802 -0.00756975 -0.0125848 0.0138446 
265 1 77.474 -1.01726 7.41444 -0.0338698 -0.00563387 0.000483383 
281 2 81.492 0.717807 8.85179 0.00163821 -0.0591261 0.036132 
277 2 77.5482 -1.98756 7.02817 0.0173346 0.083509 -0.00187248 
259 1 78.2108 -0.117776 8.37269 0.0282124 -0.00960036 0.0042585 
266 1 79.7299 -0.192348 8.75708 0.0353055 0.00163335 -0.00536857 
280 2 72.4706 1.84427 7.61569 -0.0228127 -0.0389179 -0.0470684 
271 1 73.477 2.10071 7.59904 0.00808412 0.0371184 0.0416398 
268 1 74.1737 1.16775 7.33981 0.000367266 0.000632291 0.0157309 
257 1 78.2657 3.97186 8.76466 -0.000841724 -0.00110279 -0.00523559 
262 1 74.5629 3.31455 7.68999 -0.00709528 0.00212368 -0.00376011 
258 1 76.8631 3.9095 8.65915 -0.0250989 0.0256315 -0.000125658 
272 1 74.313 4.60468 7.99393 -0.00902858 -1.7448e-07 0.0109486 
256 1 75.9108 2.92062 8.04637 0.00347397 0.0102997 0.00257951 
264 1 76.4065 5.41614 8.43493 -0.000589779 0.020818 0.00125985 
275 1 74.966 5.72057 8.43638 -0.0143028 0.0290114 -0.0162472 
260 1 75.5382 0.588784 7.60118 -0.00473891 -0.0269769 -0.0214988 
254 1 76.324 1.56052 8.10626 0.0115466 -0.0245332 -0.0126379 
274 1 78.649 6.62543 8.84663 0.00811069 0.00334778 -0.00944859 
575 2 81.3939 5.67863 8.49589 -0.0500846 -0.0640944 -0.0707547 
273 1 80.7566 4.96295 8.80079 0.0177428 0.00340067 -0.0394423 
263 1 79.3004 5.173 9.10168 0.0094956 -0.0100142 0.0239623 
269 1 80.6028 0.948203 8.71467 -0.0181409 0.0416919 -0.00379131 