ITEM: TIMESTEP
280000
ITEM: NUMBER OF ATOMS
576
ITEM: BOX BOUNDS pp pp pp
-1.2000000000000000e+01 8.4000000000000000e+01
-1.2000000000000000e+01 3.6000000000000000e+01
-1.2000000000000000e+01 3.6000000000000000e+01
ITEM: ATOMS id type x y z vx vy vz 
387 2 -9.39424 11.6963 -4.99471 0.0177201 -0.0159217 0.0269168 
483 1 -11.7253 9.40265 -11.9909 0.020178 -0.00296148 -0.00622561 
207 2 0.770146 -3.86241 11.7579 0.0361855 -0.0105706 -0.110204 
208 2 -2.84363 -4.79835 11.5251 0.0354916 0.0267423 -0.0494127 
215 2 -4.65083 -6.50477 17.3545 0.041271 0.00050622 -0.0369431 
196 1 -2.06914 -4.74961 12.5507 0.00573651 -0.00588725 -0.0203417 
473 1 -9.75924 10.1121 31.1243 -0.00691804 0.00372634 0.00893281 
211 2 -4.12617 -5.39941 13.1038 -0.0374729 -0.0396613 0.0276819 
188 1 -0.947592 -3.99735 13.3144 -0.0106944 0.00497938 0.00476215 
199 1 -3.30644 -4.64059 13.2923 -0.00519336 -0.0120658 0.0123642 
182 1 -1.50108 -3.22494 14.6518 -0.0184609 -0.00602833 0.000617552 
190 1 -3.31513 -4.67093 14.7771 0.0269691 -0.0123306 -0.0150619 
184 1 -2.36274 -3.9829 15.6491 -0.0042264 0.0204292 -0.000319204 
186 1 -2.88013 -3.33098 16.7767 -0.00433891 0.0178683 0.0105081 
200 1 -4.032 -5.77073 15.5135 -0.000955963 -0.019778 0.0143953 
212 2 -4.57132 -6.39436 14.9082 -0.0134905 0.021679 0.0242962 
203 1 -4.20569 -5.6271 16.7645 -0.00233467 0.00546848 -0.019552 
192 1 -3.69719 -4.33466 17.2344 -0.00868336 -0.00382715 -0.00101677 
181 1 -0.702322 -2.35381 15.4112 -0.00908911 0.0356159 0.0158027 
183 1 -0.960561 -1.74585 16.6027 -0.0204345 -0.0163231 0.0252703 
185 1 -2.2167 -2.15006 17.2346 -0.00243915 0.00990472 -0.0115171 
480 1 -8.25068 11.9226 31.4579 0.0192247 -0.0145602 -0.0124059 
195 1 0.353019 -3.88334 12.8271 -0.000895203 -0.0100778 -0.0215029 
205 2 1.90762 -2.4668 13.4814 0.0230327 -0.0249454 0.0197084 
193 1 0.866547 -2.85488 13.8214 -0.00532641 0.0382601 0.0069875 
187 1 0.698548 -2.02904 14.8176 0.013906 0.0246853 -0.0131395 
206 2 3.06232 -1.41207 15.8179 0.00479643 0.0811721 0.0116178 
194 1 1.91665 -1.26413 15.5137 0.00549495 0.000996139 0.0027111 
197 1 1.54238 -0.796444 16.7987 -0.019378 0.0125486 -0.00480431 
189 1 0.35084 -1.12971 17.284 0.00565874 -0.00827924 -0.0259387 
209 2 2.22209 -0.208341 17.3635 -0.0501171 -0.0469332 0.0700782 
504 2 -6.48363 10.8195 30.3737 0.0257561 0.0270891 0.0466028 
482 1 -11.8964 7.18021 32.7823 -0.00969035 -0.00866133 0.00496577 
256 1 -11.0671 -8.56052 22.043 -0.0116132 -0.0129849 0.00985892 
262 1 -11.1798 -9.81559 22.5333 -0.013615 0.000123742 0.00731689 
258 1 -9.79287 -8.18461 21.7786 -0.0362019 0.0112579 0.00309824 
272 1 -10.0896 -10.7755 23.0344 0.00103822 -0.0160824 -0.0144791 
275 1 -9.01924 -10.0051 23.3721 -0.00927516 0.0155726 0.0148017 
284 2 -10.2 -11.9098 22.9896 -0.0258535 0.0422977 0.0563056 
264 1 -8.78959 -8.72081 22.6316 0.00112838 -0.0349803 0.00503145 
276 1 -7.9431 -7.5858 23.1574 0.0221322 -0.0143667 -0.00642707 
257 1 -9.4403 -6.95864 21.1749 -0.0264302 0.00303929 0.0270389 
274 1 -7.20117 -6.49933 22.4917 -0.00573387 0.0066567 0.00793898 
288 2 -7.38212 -8.2683 24.0671 0.0143059 -0.0822021 -0.0289945 
281 2 -11.6802 -2.9888 22.015 -0.0271246 -0.00646851 0.0277394 
261 1 -10.8104 -4.77392 21.2479 -0.000560473 0.00234203 -0.0223528 
270 1 -9.59531 -4.25548 20.9494 -0.00670065 -0.00725905 -0.00128006 
255 1 -10.6688 -6.34574 21.1516 -0.000461029 0.00699624 -0.00210267 
273 1 -8.3956 -4.56574 21.3159 -0.00204778 0.0149997 0.0115576 
263 1 -8.46627 -5.97207 21.6921 -0.00749305 0.00257495 0.0163702 
285 2 -7.59301 -4.00729 21.2141 0.00255778 -0.0334757 -0.0142674 
286 2 -6.59257 -5.69899 23.1553 0.077878 0.118229 -0.0276229 
476 1 -11.9088 10.4802 34.8544 0.00368282 0.0117455 -0.0216892 
204 1 -4.20372 -3.61088 18.4764 -0.0107989 -0.0078958 0.0132537 
214 2 -4.75295 -2.27176 19.9224 0.0542824 -0.0924391 0.044606 
202 1 -4.07519 -2.27643 19.0115 -0.0127705 -0.0049468 -0.01472 
191 1 -2.75716 -1.71294 18.4317 0.0155937 0.0124796 -0.00925053 
213 2 -2.05656 -0.745668 19.7198 -0.0501717 -0.0763575 -0.0827858 
201 1 -1.34725 -1.55779 19.0423 0.0301009 -0.0214533 -0.0151898 
198 1 -0.145421 -0.744548 18.6993 0.0280404 0.0228251 0.00660554 
210 2 0.667872 -0.629134 19.3065 -0.0708005 0.0602094 -0.0367914 
287 2 -7.504 -9.77362 23.6688 -0.0170509 -0.0434595 0.0408454 
490 1 -8.70421 11.1302 29.4962 0.0418205 0.0167921 -0.0432738 
502 2 -8.39881 10.8194 28.5133 0.0236693 0.02599 0.0317781 
471 1 -10.7085 8.95711 31.7562 0.00565283 0.0344606 -0.039548 
474 1 -9.11448 11.0071 32.1133 0.000401776 0.0144033 -0.0550641 
470 1 -10.7046 10.1219 33.795 -0.0165393 0.016077 -0.0134685 
484 1 -11.9348 11.726 35.6609 0.00773937 -0.00440359 0.0231036 
475 1 -11.1953 7.72531 33.969 0.0076565 -0.0350333 -0.0119524 
469 1 -10.5797 8.91459 33.3262 0.00414669 -0.000910038 -0.0137845 
479 1 -10.0102 10.5814 29.8693 0.0035789 -0.00964744 -0.025473 
472 1 -9.77027 11.281 33.4778 -0.00161008 0.0191229 -0.000965546 
501 2 -10.7558 10.1802 28.8818 0.0304461 0.0656812 -0.0270444 
492 1 -7.60275 11.0762 30.5111 0.00252126 0.000414074 -0.0142356 
481 1 -11.9833 8.30958 35.0703 -0.00449968 0.0085222 -0.0190217 
392 2 -9.99562 15.1153 -9.79011 -0.0138115 -0.0855491 0.0106418 
391 2 -10.1015 13.201 -8.65158 0.0422722 -0.0552729 0.0296851 
380 1 -9.61195 15.8687 -9.02811 0.006156 0.0161426 -0.0194852 
379 1 -9.99213 13.9906 -7.77566 -0.00966225 -0.00855154 -0.00541946 
370 1 -9.84375 15.3724 -7.75907 0.0274806 -0.0270686 0.0133083 
395 2 -9.57698 17.9975 -9.84762 -0.00835178 0.0314443 -0.0177876 
383 1 -9.47449 17.0936 -9.1193 0.00928941 -0.0283087 -0.0323457 
396 2 -9.84845 19.6403 -8.60797 -0.0269062 0.0122339 0.066905 
384 1 -9.25996 19.2564 -7.88742 -0.0137316 -0.00814623 0.00398966 
372 1 -9.33508 17.8129 -7.84723 0.0444608 0.00898287 -0.00581999 
377 1 -9.03141 16.9637 -1.41432 0.00772898 0.018419 -0.0173374 
385 2 -9.42421 12.492 -2.30364 -0.0713881 0.021966 -0.0153005 
376 1 -9.75674 13.2229 -6.75442 -0.00346631 -0.0182505 0.00760681 
368 1 -9.55032 13.664 -5.5575 0.020414 0.00331027 0.0101411 
362 1 -9.37676 15.0243 -5.37495 -0.031218 -0.0152354 -0.00917045 
386 2 -9.78573 15.5454 -0.458684 0.0627915 0.0674873 0.049586 
364 1 -9.43003 15.9506 -6.6365 -0.00715679 -0.0143544 -0.0355677 
375 1 -9.35147 12.8156 -4.43789 0.0247331 -0.0130018 -0.0340854 
361 1 -8.92992 15.5255 -4.06275 0.00457291 0.010226 -0.0104505 
373 1 -9.29145 13.0928 -3.08381 -0.0119241 -0.0104096 -0.00800983 
367 1 -9.16801 14.6862 -2.91349 0.00970483 0.0109208 -0.0284106 
389 2 -8.88621 17.7421 -0.568983 0.044206 0.00319757 -0.0702512 
363 1 -8.7352 16.9864 -4.00163 -0.0165295 -0.0209384 -0.0177423 
374 1 -9.31168 15.6359 -1.44535 -0.00483668 -0.0152382 0.00360794 
366 1 -9.03161 17.3671 -6.56588 0.0078705 0.0205142 -0.025409 
495 2 -9.22044 19.6652 -2.11532 -0.0420815 0.0359583 -0.00558466 
378 1 -9.55733 18.9528 -2.84461 0.0194345 -0.0027396 -0.0233345 
371 1 -8.81401 19.2652 -5.38165 0.0136962 -0.00142214 -0.00127639 
393 2 -10.2664 20.3256 -4.39234 0.032916 -0.0409862 0.00357755 
365 1 -8.58639 17.6609 -5.25796 0.0160907 -0.0190543 -0.0271668 
381 1 -9.64369 19.5325 -4.15357 0.0143546 -0.0280665 0.0286428 
369 1 -9.30879 17.6168 -2.75542 -0.0031202 -0.00469444 -0.0220383 
394 2 -7.63404 19.5287 -5.31567 0.0692349 0.00446043 -0.0423118 
382 1 -8.87668 20.1136 -6.80584 0.00116375 0.0295899 -0.0061154 
390 2 -8.44703 20.9555 -7.25428 -0.0379099 0.00273898 0.0189398 
388 2 -9.85014 12.1846 -7.04997 -0.0582154 0.0221761 0.0559666 
499 2 -10.6382 12.995 -11.4552 -0.0288583 0.0231306 -0.0219403 
500 2 -5.60462 13.1127 32.9097 0.0868313 0.0224344 -0.0107591 
491 1 -7.73757 12.7747 32.5842 0.0154518 -0.0278091 -0.0305211 
488 1 -6.62601 13.3609 33.2202 0.0131831 -0.00671917 0.0252505 
503 2 -8.80658 12.939 34.645 -0.0201661 0.0818215 -0.00935833 
487 1 -10.597 12.3161 35.7366 -0.00610733 -0.0142195 -0.016046 
478 1 -9.65596 12.2975 34.6208 0.0035162 -0.00572206 0.00198525 
572 2 25.6715 -7.35736 18.3286 0.0276338 -0.0238233 -0.0120542 
560 1 25.7451 -8.4566 18.7022 -0.00229166 0.0161135 0.0378534 
571 2 25.6801 -8.44148 15.5269 0.0376605 -0.0288724 -0.00249884 
559 1 25.0376 -9.1728 16.0672 -0.0156984 0.0144226 0.0109807 
550 1 24.9861 -9.15728 17.6301 -0.00551863 -0.000941254 0.00554067 
556 1 23.9441 -9.656 15.3203 0.0312367 0.0201791 -0.00467019 
544 1 24.5534 -10.6333 17.9267 0.0115151 -0.00544139 0.0137584 
568 2 23.6324 -9.35652 14.4723 0.0639347 0.0139254 -0.0411307 
576 2 26.7832 -10.7921 21.8966 -0.0622258 -0.0746115 0.044812 
575 2 27.2048 -8.62313 20.3287 0.0245168 0.0637269 -0.0232618 
563 1 26.5717 -9.10296 19.569 0.0329976 0.00677003 -0.000272415 
552 1 25.8674 -10.3641 20.0172 0.0101982 0.0226942 0.0420116 
564 1 26.0756 -10.7868 21.3298 0.0247157 0.0269943 0.00702112 
546 1 25.4753 -11.2445 18.9519 0.0245018 -0.00451007 0.0183081 
233 1 35.4513 6.86686 32.4798 0.00697202 0.00290698 -0.000157277 
245 2 34.3999 6.4455 32.4892 -0.0701546 0.0111535 -0.0337661 
237 1 34.1832 10.6091 32.8911 -0.00714408 0.0139482 0.00798303 
249 2 33.0932 10.7314 32.7416 -0.0288038 0.0231898 -0.00617492 
227 1 35.5755 11.4143 32.8379 -0.042241 -0.0121711 0.00155869 
246 2 33.4275 8.7054 33.7735 -0.0322974 0.0701332 -0.0408181 
234 1 34.3242 9.1439 33.0173 -0.0138556 -0.0369544 0.00455365 
225 1 35.3694 8.31334 32.7206 0.0146877 -0.0109818 0.00544732 
540 2 13.2509 -7.31679 27.8789 -0.0492964 -0.00241462 0.102271 
548 1 23.9107 -11.0485 15.7476 -0.0522083 0.00820216 0.00871798 
537 2 12.902 -7.15524 27.6197 0.0761784 0.0075315 -0.0563892 
542 1 24.1578 -11.6387 16.9905 0.00886491 0.0184077 0.0152003 
555 1 23.4939 -11.8886 14.6056 -0.00952618 0.011602 0.0245312 
567 2 23.1178 -11.6333 13.6936 0.0113052 0.0474696 -0.0401436 
423 2 22.8732 17.6165 5.87534 0.0230287 -0.0344336 0.0586444 
411 1 24.0445 17.8881 5.57479 0.0268138 0.00247848 0.00507113 
397 1 26.703 17.1022 4.86438 0.0102868 -0.00376328 -0.00947357 
402 1 27.7994 15.1374 6.80113 -0.00392877 -0.00208399 -0.00844595 
401 1 28.6474 16.0124 5.89104 -0.00240059 -0.0104953 0.00613435 
407 1 30.0568 15.7943 5.74537 -0.00467282 0.0116563 0.0476191 
399 1 28.111 16.6297 4.67729 0.00253225 -0.00656616 0.00863702 
414 1 29.9472 16.0366 3.27001 0.00582132 0.00498846 0.00289912 
398 1 26.3318 16.7008 6.11254 -0.020588 0.00186279 0.0160882 
405 1 28.8323 17.0118 3.33314 0.00584799 0.00338903 0.00264396 
417 1 30.2948 15.0671 4.4162 -0.0234516 0.00145031 0.00973782 
426 2 31.5887 14.7558 4.3613 0.0597589 -0.0299636 -0.00650038 
429 2 30.45 15.3788 6.73921 0.0680633 0.0552849 -0.0936579 
432 2 31.1968 13.0668 7.38307 -0.10962 -0.000600798 0.0519923 
421 2 24.2908 19.282 3.95125 -0.00227694 -0.0456641 -0.0235716 
409 1 24.7936 18.6123 4.60586 -0.00878708 -0.00424596 -0.0180213 
422 2 26.2549 18.9828 2.241 -0.0099199 -0.0339616 0.0692467 
403 1 25.7796 17.8229 3.85142 -0.0129091 -0.0114346 0.002133 
425 2 27.6268 17.5017 1.22566 0.0673463 0.00877992 -0.0570938 
413 1 27.9765 17.6776 2.45384 -0.00511326 -0.0117897 0.00831999 
410 1 26.5945 18.1678 2.62296 -0.00244574 -0.0264752 -0.0101866 
424 2 22.9499 16.4862 6.94456 -0.0353423 0.0345934 -0.0535813 
400 1 26.5372 15.4739 6.76104 -0.0136125 0.0115288 0.0331299 
408 1 28.1306 13.7977 6.94717 0.00737743 -0.00232212 0.0106025 
418 1 30.6144 12.4107 6.52198 0.00022889 -0.0272637 0.00794651 
416 1 26.2782 13.6369 8.16086 0.0211144 0.0178294 0.0174182 
419 1 27.2609 12.7084 7.7436 -0.0103557 0.0227167 -0.0103713 
406 1 25.7203 14.4345 7.02429 -0.0143029 -0.0175119 -0.0295546 
415 1 24.5101 14.8434 7.71222 -0.011199 -0.000478379 -0.00990764 
404 1 24.7491 16.8486 6.14388 0.0220088 0.0231258 -0.0033436 
412 1 24.0881 16.1078 7.09386 0.0118661 0.0201359 -0.00503559 
427 2 24.0652 13.7835 7.59287 -0.00559121 -0.0300472 0.0385234 
428 2 25.6515 13.5162 8.94618 -0.136247 0.0483028 -0.0537479 
430 2 30.8404 12.5171 5.55588 0.0508763 -0.0462862 -0.0114848 
420 1 29.3516 13.1057 6.74037 -0.00861925 -0.0297535 0.00194074 
431 2 28.2931 12.4443 8.31588 0.053572 -0.00193292 -0.0549416 
250 2 34.2997 12.9484 33.3687 0.073889 0.00537833 0.0179932 
569 2 26.6285 31.8307 16.9147 -0.00479949 -0.0276618 -0.156641 
566 2 25.6297 32.7213 14.9714 0.00613446 -0.061013 -0.030286 
565 2 24.113 34.5567 13.4613 0.055204 -0.0636629 0.00387794 
574 2 25.8993 35.3411 22.5861 0.0201549 0.15768 -0.0174216 
238 1 35.3741 12.7427 32.5614 0.00202581 0.0211684 -0.0243121 
547 1 24.6711 34.5219 15.5997 -0.016636 0.00275571 0.0158044 
105 2 30.9763 24.1088 26.9855 0.00608818 -0.0302284 -0.00159645 
541 1 24.5341 35.0362 16.933 -0.0159694 -0.00820568 0.032433 
557 1 25.5148 32.612 17.0215 -0.00512841 -0.0171245 -0.0127569 
543 1 24.7379 34.4879 18.3161 -0.00123978 0.00487458 -0.00547209 
553 1 24.1322 35.073 14.5198 0.00178514 0.000502045 0.00881235 
554 1 25.3563 33.2583 15.8245 0.00497401 0.0251408 -0.00296295 
558 1 26.0333 32.5837 19.5144 -0.00536413 0.0203231 0.0117411 
545 1 25.4723 35.4145 19.1684 -0.00271875 0.00381814 -0.0122771 
549 1 25.058 33.1141 18.3869 -0.0206957 -0.0114655 -0.0275854 
573 2 26.082 33.4392 21.6272 -0.00840025 0.0954998 0.0441101 
562 1 25.789 35.7634 21.6362 0.0103312 -0.000353777 -0.00751286 
561 1 25.9216 33.5051 20.6637 -0.00352255 0.0116337 -0.0105564 
570 2 25.5417 31.5949 19.2548 0.0082978 -0.019505 -0.0598847 
551 1 25.815 35.0582 20.5002 -0.00754907 -0.00233677 -0.0148066 
179 2 49.2996 -6.28635 -6.96288 0.0736753 0.0032894 -0.0070562 
323 2 48.8913 -7.03697 -11.0123 0.0575015 0.0223985 0.0289929 
311 1 49.4632 -7.21611 -11.9976 -0.0196989 0.0231543 0.000532979 
33 2 59.1642 9.75064 -6.91538 0.00242725 -0.028901 0.0431908 
30 2 58.5008 10.5525 -9.73687 0.00798634 -0.0327742 -0.14962 
21 1 59.6811 9.94973 -7.93132 -0.0121471 -0.0305581 0.0171229 
18 1 59.5041 10.6274 -9.16641 0.00373318 0.0279146 -0.00744125 
324 2 47.927 -4.98483 -10.9593 -0.0863605 0.0553121 0.119951 
320 2 50.8816 -9.0426 -11.4364 0.00526529 0.0172518 0.000812495 
312 1 48.1954 -4.70359 -11.9448 0.00688212 0.0169092 -0.0173801 
355 2 55.0221 5.70734 30.7662 0.0133643 -0.112239 -0.0457029 
446 1 59.7887 0.440608 15.3269 0.00395357 0.0109206 -0.0307557 
343 1 54.9733 6.37329 29.9344 -0.00860634 0.00554035 -0.00595144 
340 1 55.1592 7.61501 30.4319 -0.00137249 0.0373283 0.00450365 
445 1 58.4976 2.73351 14.9119 0.0259766 0.0366287 -0.0131641 
457 2 58.4031 2.65392 13.6312 0.0198114 0.0609921 -0.05964 
459 2 57.7956 4.65783 15.3573 0.097727 -0.0502908 -0.0670962 
447 1 58.1514 3.7444 15.9008 0.01207 -0.00562327 0.0129747 
439 1 59.0278 1.56036 15.8031 0.00186238 0.0281551 0.0171901 
433 1 58.8465 1.75783 17.4556 0.0182635 -0.00208648 -0.00639605 
440 1 58.3452 4.26105 17.2211 0.00138488 0.00356811 -0.0109803 
460 2 57.3161 6.00545 16.6433 -0.00846904 -0.11735 -0.0586702 
65 2 58.8542 7.92649 27.0954 0.0364345 -0.040435 -0.0459523 
453 1 59.2219 -1.72953 19.1053 0.00864526 0.0429766 -0.00675196 
465 2 59.6179 -2.62158 19.5573 -0.0468439 -0.0303198 -0.0321465 
466 2 58.0869 -1.26435 22.185 0.0479426 -0.0205369 -0.0414551 
450 1 59.884 -1.57995 18.0553 -0.00453176 -0.0125751 -0.00849773 
443 1 58.4511 -0.713813 19.8766 0.0214428 -0.0137201 0.0129693 
454 1 57.6615 -1.001 21.1123 0.000572194 -0.00678879 -0.00276348 
441 1 59.4675 -0.494484 17.3522 -0.0190078 0.00264976 0.00146152 
435 1 58.9149 0.463221 18.0151 0.0142368 -0.00269792 0.00513557 
437 1 58.2386 0.708014 19.3649 0.0235281 0.0120666 -0.0240672 
438 1 57.6639 1.93498 19.8999 0.00528444 0.00360932 -0.00200258 
444 1 57.1173 1.54121 21.2228 0.0124092 0.00956569 0.0240095 
455 1 55.964 2.46725 21.4451 0.0119519 0.00872163 -0.00517968 
434 1 58.5583 2.91118 18.1915 0.0125389 0.0129495 -0.00535246 
436 1 57.7575 3.26516 19.3834 -0.00140946 0.00713416 0.00515446 
448 1 57.4396 5.38026 17.6231 -0.00250689 -0.0220479 -0.0164726 
442 1 56.6347 4.17598 19.5275 -0.0113851 -0.0137029 -0.0126127 
452 1 55.8863 3.77653 20.8555 0.0157178 0.0023238 0.0216387 
451 1 56.6231 5.30307 18.6005 -0.0127254 0.00932498 -0.0193453 
463 2 55.852 5.98692 18.8165 0.0377009 0.0178103 -0.044625 
464 2 54.9753 4.47813 21.3028 -0.0587186 -0.0752016 -0.134235 
456 1 56.7346 0.0762575 21.4557 0.0371571 -0.0024516 -0.0175455 
467 2 55.5006 1.66179 22.2309 -0.0706616 0.0560397 0.0349152 
468 2 56.1482 0.226512 22.3142 0.00510212 -0.11574 -0.0157497 
358 2 54.7193 4.71287 23.2036 -0.0099674 -0.0764562 -0.100023 
354 2 55.8523 9.18675 22.4638 -0.0897335 -0.0423989 -0.0304125 
342 1 55.6461 8.72947 23.3454 -0.0021154 -0.00194213 0.01175 
345 1 54.9918 7.38954 23.2146 -0.0365086 -0.0117497 -0.000887228 
357 2 55.0878 6.8396 22.2484 0.0356239 4.04824e-05 -0.023877 
313 2 54.0814 -5.09266 29.733 -0.00483268 -0.0376692 -0.00624314 
305 1 51.3272 -3.23943 29.9098 -0.00879088 0.00433728 -0.0012296 
317 2 50.4539 -2.76949 29.1769 -0.0487638 -0.0281806 0.155255 
302 1 52.1271 -4.24783 29.4097 -0.00189218 0.00555966 0.0142258 
314 2 52.4571 -4.15937 28.2833 0.0230376 0.0150229 0.0250702 
359 2 53.4883 2.76321 26.8461 -0.0926731 -0.0367262 -0.0508857 
347 1 53.6132 4.15168 27.5075 -0.00667451 -0.00658121 -0.0392207 
344 1 53.5284 4.83029 28.7101 0.010474 -0.0231204 -0.0103478 
360 2 53.7071 3.1824 24.6148 -0.071493 -0.0260726 0.0144662 
336 1 53.873 4.8116 26.2439 0.0221386 -0.0285512 -0.0138221 
356 2 53.065 4.29182 29.6392 -0.0625278 -0.0438198 0.00662098 
348 1 53.8098 4.27559 24.9893 -0.0148836 -0.0200308 0.0249382 
346 1 54.3345 5.2876 24.0631 -0.00401823 -0.00255374 -0.0133785 
66 2 59.8105 9.65798 26.1181 -0.0671921 -0.0213097 -0.014027 
328 1 53.9646 7.09705 27.6361 0.00950057 -0.0131059 0.00427211 
335 1 54.9113 6.47336 24.4394 -0.0032492 -0.00474543 0.022462 
329 1 54.8208 7.25577 25.6075 0.00606574 0.0104545 0.0220899 
330 1 53.8184 6.48636 26.356 0.00480057 0.0281155 -0.0274924 
333 1 55.4168 9.331 24.7256 0.0143359 -0.00489145 0.0140848 
327 1 55.0088 8.71338 25.9872 -0.0235546 -0.0310021 0.00999835 
326 1 54.5234 8.43962 28.4038 -0.035235 0.0119208 0.0167836 
325 1 55.1329 9.24878 27.4811 0.0156168 -0.0147842 -0.00567189 
332 1 55.2278 8.7013 29.5941 -0.00261906 0.0194134 -0.0105646 
334 1 54.3361 6.13027 28.704 -0.00204895 -0.01427 -0.0132448 
341 1 55.9892 10.8395 25.143 -0.00801161 0.0110499 0.0364507 
331 1 55.794 10.5638 27.5339 -0.0260973 -0.0253816 -0.024954 
339 1 56.08 9.92813 29.8913 -0.00611551 -0.0106951 0.00180524 
338 1 56.4237 11.2622 26.3621 -0.023855 0.0240022 -0.00640901 
337 1 56.2777 10.8939 28.9919 0.00858679 0.00130281 -0.000994 
353 2 56.0678 11.5738 24.4023 0.0886866 0.0168384 0.0539236 
308 1 50.625 -8.11898 35.9791 0.0193096 0.00237672 -0.00912649 
301 1 53.3992 -5.76513 30.4046 -0.00476884 0.0190553 -0.0109026 
303 1 53.787 -6.95428 31.0779 -0.00577538 -0.00602009 0.00495877 
290 1 51.702 -6.55964 32.5722 0.0199779 0.0198385 0.0239464 
304 1 53.4224 -8.33422 33.3186 0.0218134 -0.00450752 -0.00991822 
296 1 52.8964 -7.21743 32.2089 -0.0237339 0.0106596 -0.0182712 
292 1 50.8946 -6.55725 33.8859 -0.00418603 -0.00787158 -0.0285709 
307 1 52.7556 -8.16999 34.3204 0.000188164 0.00116111 -0.0207442 
298 1 51.1883 -7.72229 34.7154 -0.0152356 0.0335499 0.0374029 
316 2 54.382 -8.98248 33.3696 0.0507607 -0.00358226 -0.00831933 
352 2 55.4892 7.77627 31.3145 -0.0186008 0.00614541 -0.0400433 
319 2 52.7853 -8.8844 35.2514 0.112824 -0.144425 -0.0444656 
315 2 54.2058 -7.65872 30.4553 0.0637343 0.00658771 0.0787634 
322 2 47.026 -3.51606 34.8115 -0.00202768 -0.00155535 0.0343787 
310 1 47.9764 -3.72654 34.9758 0.0202824 0.000736756 0.0385136 
53 1 59.7536 7.24075 26.7553 -0.0303401 0.0210304 0.0153541 
351 2 56.1637 10.4298 30.833 -0.00669965 0.0565096 -0.00790566 
297 1 50.7886 -3.31178 31.3146 -0.0102883 0.0128635 0.0187449 
309 1 49.3139 -2.14927 32.9312 -8.799e-05 -0.023771 0.0199126 
321 2 49.915 -1.24384 33.3611 -0.0832269 0.0358895 0.00541048 
306 1 49.7535 -2.25675 31.462 -0.0352392 0.00939087 0.00201322 
318 2 49.6144 -1.6461 30.3682 0.0710978 0.0460661 0.0837806 
295 1 52.2167 -5.08346 30.5744 0.00816797 -0.0421387 -0.0227205 
300 1 49.1674 -5.74276 35.7122 -0.00127189 -0.0375189 0.0193858 
299 1 49.1663 -3.09618 34.1034 -0.00168565 -0.0146261 0.0154289 
289 1 51.4622 -5.35756 31.9325 0.0343084 -0.00410822 -0.00153957 
293 1 50.067 -4.18022 33.6947 0.0228449 -0.00840158 -0.00205752 
291 1 50.6067 -4.29773 32.3253 0.00304229 0.0272554 0.00371867 
294 1 50.1484 -5.44385 34.3789 -0.00789101 -0.0108378 -0.0126221 
242 2 36.4075 5.48884 31.6585 -0.00612188 0.0212933 -0.0385273 
241 2 39.0269 5.07912 32.4032 -0.020389 -0.0380586 0.0241917 
226 1 40.2537 11.2544 31.5194 0.00266703 0.00550596 0.0161824 
235 1 41.2197 10.4109 30.7297 -0.00147954 -0.0173144 -0.0143435 
220 1 38.9318 10.4607 31.8156 0.0145859 -0.00322408 -0.00598856 
221 1 36.6493 10.5279 32.4176 -0.0284057 0.0215751 0.0271523 
219 1 36.5573 9.17427 32.3108 0.00721115 0.012137 0.00670304 
217 1 37.6773 8.34463 31.9295 0.0131708 0.00175837 0.020042 
223 1 37.8165 6.94825 32.3065 0.0113261 0.00810221 -0.000607921 
218 1 38.9713 8.9449 31.5633 0.0127082 0.00242564 -0.0209002 
230 1 36.5476 6.38214 32.2363 -0.00730267 0.000245713 -0.0190205 
224 1 40.2342 8.27672 31.624 -0.0044669 -0.0331438 0.00982297 
229 1 39.0196 6.25379 32.2249 -0.024425 0.013436 0.00332812 
232 1 41.2195 9.00798 30.5467 0.00334029 -0.0224885 -0.00790702 
231 1 40.1849 7.08412 32.3631 -0.00634759 0.00557744 -0.00486602 
222 1 38.0331 11.2218 32.3905 0.012912 0.0141218 0.00278987 
243 2 40.9293 6.29984 32.2518 -0.121514 -0.0218861 -0.0864303 
247 2 42.0248 11.1499 30.1673 0.0213571 0.00493879 -0.0260142 
244 2 41.8639 7.98424 30.7892 0.0690828 -0.00790611 -0.0641122 
62 2 59.8929 5.895 28.4604 -0.032912 -0.000878291 -0.0147977 
108 2 44.0872 32.9756 -3.39582 0.0377714 0.0169145 -0.0537155 
98 2 59.5148 24.699 7.57867 0.0570813 0.0310692 -0.0468089 
101 2 59.14 27.3164 7.14398 0.0177617 0.0436546 0.0119465 
89 1 59.9429 26.5695 6.6324 0.0147404 0.0184992 0.0150784 
29 2 59.3338 12.3779 -11.4744 0.0887982 0.0063595 0.0318277 
180 2 40.9002 16.856 15.7698 -0.078802 0.0756517 -0.127455 
168 1 41.2699 17.3346 16.7054 -0.0227959 -0.00653406 -0.0215033 
166 1 41.1698 18.8548 16.77 -0.0245017 0.0169515 -0.0223578 
178 2 40.5466 19.2614 16.3286 0.0850604 -0.0616436 0.0242984 
155 1 41.747 19.6557 17.9368 -0.020076 0.0118631 0.0243255 
165 1 42.6046 20.903 17.6564 -0.00324175 -0.00320923 0.0359913 
174 2 44.5862 21.5141 17.9432 -0.00463525 0.0652632 -0.0127971 
156 1 41.3621 16.6802 18.0053 0.0160922 0.0222663 0.00254002 
167 1 41.567 15.2392 18.0397 0.00288915 -0.0164869 -0.0090642 
176 2 40.7876 14.8162 17.5312 -0.0552639 -0.0224753 -0.0846743 
164 1 41.7963 14.7852 19.361 -0.0279362 0.00407659 0.00384297 
150 1 41.7632 17.742 19.1398 -0.0135582 -0.00806693 0.0176604 
154 1 41.8549 15.9768 20.4694 0.00847499 -0.00154549 -0.00132531 
163 1 41.14 15.7274 21.7636 -0.0151153 -0.0155154 -0.0323935 
148 1 41.8023 17.5318 20.5128 -0.012515 -0.000164341 -0.012311 
160 1 41.4063 16.4996 23.0558 -0.0348366 -0.0022126 -0.00395729 
175 2 40.0527 15.4783 21.5159 -0.147594 -0.0162785 -0.0120095 
162 1 43.6867 21.3651 18.5798 0.0222485 0.0135994 0.00803461 
170 2 45.8769 21.4698 22.404 -0.0308925 0.0412549 0.0307846 
173 2 45.5745 22.3731 20.158 -0.0128916 0.0371409 0.0740639 
153 1 43.7592 21.0066 19.9968 -0.0303804 -0.00282315 0.0116695 
161 1 44.9292 21.6159 20.707 0.0142696 -0.00113414 -0.0121939 
149 1 42.5572 18.9394 18.9547 0.000866211 -0.0379875 0.00368298 
158 1 45.0238 20.8851 21.8449 -0.00484652 -0.00564483 -0.00264557 
147 1 43.3802 19.6541 20.0041 0.00226064 -0.0104482 -0.00642876 
151 1 44.0348 19.5703 22.0433 -0.0157403 -0.0146792 -0.014376 
157 1 43.4967 19.7224 23.3285 0.00839832 0.0264613 -0.0105965 
145 1 43.0648 19.1814 21.2134 0.000461125 0.00786256 0.0103387 
152 1 42.2653 17.6996 22.9755 -0.00977847 -0.0182473 -0.0137603 
146 1 42.3026 18.0788 21.497 -0.00713434 0.00532289 0.00597589 
172 2 41.2501 16.0004 24.0201 -0.0428287 -0.0414721 0.0806827 
252 2 36.5177 14.7214 32.6696 -0.05113 0.00702521 -0.0777454 
533 2 51.7793 23.1875 31.0261 -0.0827292 0.00894723 -0.00964285 
171 2 44.2837 20.2538 23.8057 0.0393023 -0.0404987 -0.0268985 
159 1 42.7549 18.6991 23.8506 0.0418714 -0.00552885 -0.00767011 
535 2 45.8424 21.9039 24.325 -0.02809 0.0358453 0.00433164 
169 2 42.8106 18.6735 24.9233 -0.0386577 -0.0265695 -0.0172895 
528 1 44.6396 21.8692 30.8251 -0.00337148 0.0133437 0.0122759 
516 1 45.3541 21.7254 29.3948 0.0188688 0.0048636 0.00403016 
509 1 47.6025 22.2604 30.2484 -0.00789618 0.0254266 0.00300325 
510 1 46.7181 21.9917 29.0097 0.00572313 -0.0016861 0.00847264 
527 1 44.3924 21.3023 28.3734 -0.00955624 0.0445972 0.0434905 
539 2 43.4241 21.0458 28.6729 -0.0598984 -0.00123633 0.0178547 
514 1 46.0497 21.9931 26.6616 0.0278379 -0.0140037 0.0372776 
508 1 46.8804 22.6398 27.7385 -0.00326674 0.00703988 0.00531815 
524 1 44.6896 21.5428 26.8754 0.004238 -0.00480965 0.0222022 
536 2 43.8743 21.1161 26.1827 0.0677298 -0.034108 0.0629976 
523 1 46.1913 22.4036 25.2371 -0.00824642 0.00497838 -0.0105416 
520 1 47.2231 23.3527 25.0049 0.00995132 0.00707442 -0.00416913 
518 1 51.2793 23.1366 29.1599 -0.0117259 0.00185728 -0.0136371 
506 1 48.1329 23.2021 27.4579 -0.00329784 -0.0134985 -0.022569 
507 1 48.913 23.0292 30.1152 0.0101494 0.00538401 -0.00990905 
505 1 49.0867 23.3796 28.6968 0.0168331 -0.000208001 -0.00614266 
512 1 48.3328 23.6209 26.0122 0.0192661 -0.0156877 -0.00992877 
511 1 50.4667 23.682 28.1624 -0.035788 -0.00288052 0.00703023 
530 2 52.38 23.383 28.7053 -0.000968645 0.0693461 0.0724636 
532 2 47.6426 23.0894 23.9923 -0.0277642 0.0640109 0.0704034 
531 2 49.972 24.5328 24.7341 0.0188719 0.0582356 -0.0160524 
519 1 49.7176 24.169 25.6287 0.00252439 -0.00143345 -0.0231108 
529 2 51.5732 24.7808 26.3985 0.0144499 -0.0202116 -0.13622 
517 1 50.6489 23.9555 26.7235 0.0139301 0.00539037 -0.00249605 
239 1 39.3362 13.1428 32.6654 0.00954958 0.0114631 -0.0175918 
240 1 36.6322 13.6198 32.5049 0.0109414 0.00779742 0.0329457 
236 1 40.2389 12.6819 31.5598 0.00798776 -0.0125347 -0.00851913 
248 2 41.547 12.6299 31.5777 0.0461662 -0.00123618 -0.0445419 
228 1 37.8709 12.855 32.473 -0.0260194 -0.0365006 0.00233481 
251 2 40.1489 13.0551 33.3615 -0.0572868 -0.0536379 -0.00948546 
521 1 51.0596 23.0738 30.5293 0.0270064 0.00444587 -0.0265396 
526 1 45.613 22.0985 31.7218 0.00362714 0.00038457 -0.00262322 
515 1 47.0851 22.4985 31.6682 -0.000807221 -0.00830591 0.00644191 
538 2 43.8829 22.1335 31.6096 -0.0273691 0.0613187 -0.0755327 
525 1 48.1419 22.2418 32.6026 -0.00491355 0.00951489 0.0265422 
522 1 49.4999 22.4658 32.6545 0.00998846 -0.0188163 0.00355454 
534 2 50.2438 21.8727 33.2104 0.0329863 0.089102 -0.0461049 
513 1 49.9001 23.049 31.1804 0.00205225 0.00870148 0.0144817 
350 2 57.4227 12.1337 26.3991 0.0320028 -0.0656823 0.0179075 
349 2 56.6877 12.0298 29.2821 -0.0927174 -0.0685456 -0.0233002 
6 1 62.6924 11.1525 -7.6832 -0.0287948 -0.00552563 -0.00277976 
35 2 64.1788 10.4463 -4.95198 -0.0242348 0.0736784 0.116831 
1 1 62.6178 11.889 -10.1649 0.0101229 0.00709849 0.0139557 
3 1 61.6465 11.1729 -9.42763 0.0226556 0.00141907 -0.0162712 
5 1 61.6745 10.5056 -8.19628 0.00215488 0.00889092 -0.00948915 
12 1 63.1262 10.9292 -6.36158 0.00989164 0.0356374 0.017894 
9 1 60.4427 10.947 -10.1432 0.00353266 0.0206191 0.020997 
4 1 63.8369 11.8445 -8.37112 -0.00438196 -0.00807317 0.0165463 
32 2 66.3042 11.0066 -6.05939 -0.060783 0.00375819 -0.0231414 
20 1 65.3899 11.2396 -6.7363 0.00785114 -0.0136757 -0.0131366 
10 1 65.1651 11.7474 -7.96497 0.0127728 0.0313082 0.00253306 
22 1 60.7985 9.43646 -5.93623 0.035725 0.00882199 -0.0123356 
11 1 60.7864 9.857 -7.35978 0.0201846 -0.00163416 0.00796367 
24 1 61.8989 10.3434 -5.48842 0.00680123 -0.0482756 -0.0250986 
493 2 83.7945 9.76756 -11.0839 -0.0368544 -0.0634857 -0.0178894 
34 2 59.984 8.59245 -5.76243 -0.0945137 -0.0282058 0.0227551 
36 2 61.8221 11.0061 -4.51742 0.00322174 0.0493915 0.0220784 
71 2 81.8482 10.1153 11.8797 0.048715 0.0266668 0.0776305 
216 2 73.1296 -1.12911 -7.23026 -0.0868708 -0.00799202 -0.0364249 
23 1 64.3318 11.1378 -6.03403 -0.00382313 -0.0213928 -0.0316813 
496 2 82.9551 11.6721 -11.6077 0.00478608 0.0403753 0.1201 
265 1 81.5246 -6.41153 20.5107 -0.00679384 0.0122864 0.00688431 
267 1 81.5415 -7.76292 20.9527 0.0118771 -0.00101014 -0.00323187 
279 2 80.4747 -7.94491 20.4353 0.0537739 -0.00486294 -0.0356659 
268 1 82.4478 -10.1143 22.2771 -0.00253932 0.00534519 0.0163441 
260 1 82.4049 -8.83035 21.4685 -0.000648853 0.0164889 0.0150553 
280 2 81.85 -10.8594 22.8596 -0.0983019 -0.0593632 -0.00668652 
271 1 83.567 -10.4874 22.6285 0.00418044 -0.021755 -0.00179221 
486 1 82.9234 9.39199 30.0766 0.0146479 0.0188334 -0.0295109 
277 2 80.7395 -5.83299 20.0234 0.00143214 0.0515045 -0.000352278 
259 1 82.788 -5.78614 20.8877 -0.00873754 0.018805 0.00559563 
266 1 82.8084 -4.28774 20.889 -0.0117033 -0.0208957 0.0420897 
278 2 81.847 -3.89375 20.9408 -0.0397927 0.0354655 0.0139033 
64 2 62.4491 1.20729 24.1848 0.101276 -0.0409021 0.043756 
52 1 62.4899 2.27035 23.7146 -0.0231832 -0.000190829 -0.000137663 
55 1 62.9514 2.40353 22.3708 -0.0347183 -0.0401798 0.0135955 
67 2 63.7884 1.67069 21.944 -0.13714 -0.0474743 0.0559726 
46 1 62.0739 3.4608 21.8613 0.0327193 -0.0169371 -0.00861236 
40 1 61.9287 4.61935 22.6441 -0.0278798 -0.000199633 0.0062765 
56 1 61.5075 2.60619 20.64 -0.0136969 -0.0341584 -0.00453524 
59 1 60.9557 1.86813 20.0589 0.0042839 -0.00809059 0.00796577 
68 2 60.2833 1.13566 19.6489 -0.0564312 -0.0592316 -0.03818 
48 1 62.9094 6.68423 21.5055 0.00725851 -0.000315065 0.0300641 
42 1 62.0667 6.11766 22.4948 -0.034688 -0.0345854 -0.00508043 
72 2 64.05 6.65246 22.2399 -0.0360624 -0.0352044 0.0311708 
60 1 62.755 8.05813 21.0062 -0.00859625 0.00297589 -0.00656222 
58 1 62.1526 9.0831 21.978 -0.0132289 0.012056 -0.0119073 
70 2 62.7322 10.2523 21.9251 -0.0275624 0.00411279 -0.0180786 
47 1 61.5457 8.47484 23.0057 0.00426102 0.00781449 0.00968871 
485 1 83.2089 8.05616 32.1372 0.000320151 -0.00529893 -0.0192428 
41 1 61.219 7.00811 23.1479 -0.00290588 0.0132935 0.000278077 
44 1 61.7633 3.1632 24.4848 0.0044121 -0.0113846 0.00989341 