ITEM: TIMESTEP
100000
ITEM: NUMBER OF ATOMS
576
ITEM: BOX BOUNDS pp pp pp
-1.2000000000000000e+01 8.4000000000000000e+01
-1.2000000000000000e+01 3.6000000000000000e+01
-1.2000000000000000e+01 3.6000000000000000e+01
ITEM: ATOMS id type x y z vx vy vz 
310 1 -0.892285 10.9995 -5.98814 -0.00015045 -0.0257093 0.0151662 
50 1 11.9948 -1.62385 -9.72013 0.0207114 0.0329112 0.0153492 
319 2 3.08357 9.6618 -0.734001 -0.0394523 0.0754914 -0.0796021 
65 2 11.3792 -3.65496 -9.28213 0.0377946 0.0391572 0.0718681 
62 2 11.3231 -1.04244 -9.26253 -0.0141539 -0.100553 0.0359736 
323 2 0.245544 7.81579 -3.5469 0.0395643 -0.0180698 -0.000237249 
311 1 0.678905 9.07125 -3.51777 -0.0212051 -0.0120986 -0.0150884 
324 2 -1.75519 9.30503 -4.67312 -0.00118369 -0.119022 -0.0720852 
61 2 11.8408 0.43322 -9.45746 0.0644112 0.0213607 -0.0307595 
298 1 2.64412 10.1662 -2.71695 -0.00337289 -0.00826308 -0.000163941 
292 1 2.42899 11.2171 -3.65263 0.0229932 0.00762416 -0.00321912 
304 1 4.43162 11.5043 -1.39024 0.0107204 0.00326534 0.0128678 
294 1 1.42651 11.1234 -4.66705 0.00615856 -0.00742139 -0.00349401 
312 1 -0.890992 10.1572 -4.8809 0.0213683 -0.013072 0.00545673 
322 2 -1.82369 10.7825 -6.43791 0.0953782 -0.0195249 0.00121146 
290 1 3.57302 12.1073 -3.76825 0.0131304 0.0390542 -0.000841837 
307 1 3.60561 10.4577 -1.60653 -0.0163489 -0.016709 -0.0453404 
308 1 1.69705 9.09826 -2.61104 0.00218435 -0.00598338 -0.0129865 
320 2 1.47946 8.69148 -1.76052 -0.0327591 0.0277216 -0.0533415 
300 1 0.333446 10.2482 -4.28509 0.00832925 -0.00849342 0.0193431 
299 1 0.142491 11.9132 -6.46241 -0.0238354 -0.00068268 0.0047763 
316 2 5.19239 11.1158 -0.420201 -0.00875151 -0.0807581 -0.088658 
293 1 1.40726 12.1979 -5.47974 -0.0107978 0.00288124 -0.013506 
557 1 -11.3331 24.5886 9.59446 0.0226227 -0.000296568 -0.0142215 
318 2 1.42334 13.8599 -8.8456 -0.0703059 -0.0210704 -0.00936661 
321 2 -0.752057 12.9077 -8.42706 -0.0677385 -0.0620829 0.0440993 
309 1 0.0552883 12.6692 -7.67977 -0.00476609 -0.0329991 0.00263243 
306 1 1.40217 13.3738 -7.99783 -0.0164883 -0.0145229 0.00829242 
297 1 2.46463 13.7206 -7.12861 0.00912547 0.0218834 -0.0199484 
305 1 3.7569 14.2453 -7.64106 -0.0182116 0.0439614 -0.0304525 
317 2 3.76838 14.5946 -8.79671 -0.0422297 -0.000458915 -0.0193212 
239 1 11.7554 24.5871 -10.4165 -0.012218 -0.000644501 -0.0101796 
251 2 11.7928 24.687 -9.26139 0.0261847 0.043033 0.014549 
252 2 9.144 24.1334 -9.23621 -0.0210088 0.0707835 -0.0730289 
240 1 9.2259 23.7358 -10.2231 0.0350394 -0.0232911 -0.00517682 
228 1 10.4836 23.8521 -10.9964 0.0143666 0.00502852 -0.00534384 
250 2 7.75395 22.2566 -10.1747 0.124211 -0.0522023 -0.00332761 
238 1 8.42106 22.641 -10.7706 0.00940003 -0.00424191 0.0135568 
551 1 -11.7272 27.8865 6.91508 0.00256456 -0.0190679 0.01658 
568 2 -5.31209 24.2081 6.2213 0.0450128 -0.0930518 -0.0502724 
249 2 6.78249 20.4156 -11.7965 0.00293369 -0.0071335 -0.04456 
289 1 3.60874 13.0338 -4.94714 -0.021226 -0.0133203 -0.00100099 
549 1 -11.3984 25.6037 8.63829 -0.0122207 -0.0191945 0.00367093 
291 1 2.50851 12.9693 -5.88789 -0.0353119 0.0148827 0.001304 
295 1 4.61258 14.1393 -5.26296 0.001576 -0.00202312 -0.0200946 
302 1 4.53545 14.8252 -6.6146 -0.0615589 0.000312261 -0.0144781 
314 2 4.70547 15.8176 -6.40168 0.0179524 -0.011289 -0.01338 
301 1 5.57092 14.1842 -4.09734 0.0149136 0.00326597 -0.0353975 
313 2 6.67812 14.5342 -4.13836 0.044287 0.0570242 0.0340821 
576 2 -11.1935 29.9376 3.76093 -0.0248235 -0.0353768 0.110257 
564 1 -10.9225 29.3065 4.71457 -0.00807773 -0.000931763 -0.0164845 
563 1 -8.53175 28.7956 4.20827 0.0209138 0.0123167 0.0178716 
572 2 -6.78108 28.4237 3.2481 -0.0953007 0.0464476 0.0506905 
560 1 -7.4428 27.8404 4.02253 -0.0192378 -0.00338582 0.00347019 
575 2 -8.84345 29.7946 3.9472 0.0835477 0.0248814 -0.0198302 
552 1 -9.86561 28.2953 4.86204 0.013214 -0.0100774 -0.00215751 
546 1 -9.58676 27.3139 5.82976 -0.011807 0.0230413 -0.00440952 
550 1 -7.31701 26.5791 5.04148 0.0332603 -0.024447 0.0247535 
559 1 -6.13279 26.1133 5.62674 0.00464269 0.00428362 -0.03124 
544 1 -8.30338 26.4468 5.94873 0.00927178 -0.0126258 0.00480448 
562 1 -11.7957 29.0663 5.81571 -0.0136923 0.00958904 -0.0108523 
571 2 -5.15079 26.1011 5.1332 0.0447852 -0.0130878 -0.0349109 
566 2 -10.4255 22.6008 9.95614 0.0079602 -0.0496236 -0.0466624 
565 2 -8.70041 21.8161 9.50716 -0.0351097 -0.0309143 -0.0192972 
545 1 -10.6471 26.9812 6.78698 0.0378339 0.0130938 0.00036075 
543 1 -10.4974 25.9011 7.5717 0.00628129 -0.023723 -0.00210773 
547 1 -9.19021 23.9702 8.58669 0.0112227 0.0161884 0.00300146 
553 1 -8.34264 22.8812 8.64184 -0.00827077 -0.0234323 -0.0151914 
542 1 -8.12882 25.4123 7.03954 0.00871786 0.0177995 0.0219512 
556 1 -5.92076 25.0201 6.59685 0.00759159 0.00761861 -0.000159507 
548 1 -7.00299 24.6556 7.45459 0.00145721 0.0114851 0.0030254 
567 2 -6.55986 22.4744 7.19689 0.00388639 0.102762 -0.0285893 
555 1 -7.1331 23.3297 7.91725 -0.023172 -0.0210606 -0.0375078 
541 1 -9.16065 25.1474 7.83775 0.00275241 -0.00451535 -0.0070438 
554 1 -10.299 23.5326 9.49956 -0.0020025 0.00485164 -0.00451879 
303 1 5.65321 13.1203 -3.11033 -0.00691967 0.0214564 0.0313563 
296 1 4.61419 12.4058 -2.73278 0.0017978 0.0247382 -0.0133632 
315 2 6.24052 12.9378 -2.04953 0.0239561 0.0553463 0.0505486 
242 2 10.6339 20.0661 30.6142 0.0557588 0.0973796 -0.00661113 
227 1 8.43237 21.9655 35.9614 -0.0173602 0.00784088 0.0150525 
245 2 8.79836 19.2159 31.9358 -0.0176456 -0.000840341 0.0158875 
246 2 8.45059 18.9549 34.5824 -0.0376888 -0.0837061 0.00831432 
220 1 11.8309 23.2503 34.9384 0.00890133 -0.0191516 0.00149157 
233 1 9.22135 20.2079 32.2431 0.0299798 -0.0104707 0.0174496 
230 1 10.1802 20.5593 31.3923 0.000879577 0.00660493 0.0155862 
237 1 7.6056 20.9453 35.4508 0.0068059 0.00707282 0.00886457 
234 1 8.22519 19.9432 34.6793 -0.0112984 0.00464491 0.00108926 
219 1 9.61088 21.7644 34.109 -0.0019074 0.00179559 0.0225313 
221 1 9.79555 22.2901 35.3944 -0.00126509 0.00411837 -0.00588917 
223 1 11.1208 21.6572 31.6599 0.0247457 -0.0205655 0.015309 
225 1 8.90413 20.8118 33.5684 -0.00333671 -0.0048281 0.0380247 
218 1 11.6935 22.8979 33.5134 0.0165238 0.017424 0.0128993 
217 1 10.6274 22.1855 32.829 -0.0177055 -0.0186711 0.00350886 
222 1 10.7691 22.9992 35.8447 0.00629588 -0.000248161 -0.0206933 
70 2 17.4684 -5.82393 -8.08976 -0.00313432 -0.00685471 0.0259384 
69 2 15.3834 -6.37527 -8.43661 0.0218579 0.0401835 -0.00977685 
47 1 16.2581 -4.34932 -8.97309 -0.0050452 -0.00401066 -0.00779965 
43 1 13.3209 -0.91725 -9.75265 -0.000524989 0.0326131 -0.00250093 
40 1 16.7543 -0.376759 -9.7536 0.0231595 0.0232722 0.00350442 
46 1 17.7828 0.525771 -9.76714 0.00143239 -0.0107806 0.0112179 
44 1 15.0542 1.37049 -9.26918 -0.0100634 -0.011669 0.010537 
38 1 15.3345 0.0458579 -9.78333 -0.00813612 0.0108867 0.0178921 
39 1 14.7196 -2.79025 -9.8251 0.0119777 -0.00463228 0.012483 
37 1 14.5486 -1.25278 -10.0338 0.0111345 0.00316266 0.0145194 
42 1 16.9061 -1.80221 -9.60042 -0.00249291 0.0198259 -0.0127306 
48 1 18.2181 -2.24342 -9.15102 0.00555035 0.0271429 -0.00754426 
41 1 16.024 -2.82609 -9.32707 0.0125956 -0.016192 -0.0350818 
60 1 18.4603 -3.73167 -8.53068 0.00341172 0.0117358 -0.0349947 
58 1 17.4491 -4.94154 -8.53051 0.000989953 0.00953364 -0.00474899 
57 1 15.3897 -5.55759 -9.13486 0.0047379 -0.00447724 -0.0200156 
54 1 14.1314 -4.88498 -9.02258 -0.017301 0.0124143 -0.0142593 
45 1 13.5563 -3.56295 -9.71961 0.0275107 -0.000147007 -0.00299521 
49 1 12.8807 0.549148 -9.33471 0.0120325 -0.0164214 0.019911 
51 1 13.6884 1.56136 -8.65001 0.00224867 -0.0032938 0.0247776 
59 1 19.3408 -1.35249 -9.35847 0.0186585 0.0381781 -0.0120801 
72 2 19.5081 -3.76342 -9.0647 0.0553162 -0.0360927 -0.0287822 
56 1 19.0908 -0.0210959 -9.73891 0.0289981 0.0124288 -0.00652475 
71 2 20.2565 -2.01934 -8.93145 -0.0380536 0.0202598 0.0933471 
68 2 19.803 0.809214 -9.66998 -0.0229252 -0.00926874 -0.0371065 
52 1 16.1676 2.29909 -9.07218 -0.00577956 0.00977374 0.0435162 
55 1 17.2886 2.02829 -9.82126 -0.014384 0.0257664 -0.0427954 
67 2 17.8587 2.7519 -10.427 -0.0432413 0.0586569 0.00775797 
64 2 16.0795 3.14662 -8.41624 0.00963293 0.0422896 -0.0437827 
66 2 13.5323 -5.80171 -8.16405 -0.00479986 -0.067201 -0.0108543 
63 2 13.3689 2.37621 -7.93061 0.0770207 0.0268982 -0.0294829 
53 1 12.232 -3.02835 -9.5252 -0.0074012 0.00680862 -0.00574507 
287 2 22.7998 11.4881 -11.1203 -0.0419383 0.0153723 -0.026923 
141 2 31.091 -2.52136 21.1484 -0.00755631 0.0521137 0.0788328 
129 1 31.7991 -1.8612 21.6955 -0.00618988 -0.00272778 0.00270134 
138 2 32.9247 -3.75468 22.5135 -0.0217166 -0.00742165 0.0224763 
126 1 32.4773 -2.67776 22.662 0.00050295 -0.0357463 0.000400583 
117 1 33.497 -2.21205 23.4665 0.0119708 -0.0231865 -0.0112767 
111 1 33.5205 -0.730107 23.6916 -0.00841798 -0.00522065 -0.00410383 
119 1 31.5291 -0.561989 22.0417 -0.0077895 -0.000948156 0.00481197 
125 1 34.6248 -2.80433 24.1123 0.0193904 0.0268371 0.0216064 
142 2 30.187 -0.245412 20.7467 0.015382 0.0386124 0.0330927 
143 2 30.4527 4.1642 22.7624 0.0137822 0.0541136 -0.107092 
140 2 32.8315 5.51354 23.7263 -0.0562151 0.0516368 0.0699081 
118 1 33.7634 3.42584 23.1489 -0.0104674 0.0118125 0.0142996 
128 1 32.6769 4.33284 23.4572 -0.0094202 0.00276547 0.0201804 
144 2 29.2001 2.56073 21.8107 -0.0623487 -0.0118964 -0.0290755 
132 1 29.9853 1.73848 22.103 -0.00410217 -0.00270018 -0.0161539 
120 1 31.3888 2.33091 22.5323 -0.0144613 0.0277999 0.00975932 
130 1 30.3793 0.452566 21.6047 -0.00439035 -0.00114667 0.0195555 
131 1 31.6334 3.70954 22.909 0.0142634 -0.00794442 0.0209372 
114 1 32.3558 1.39992 23.063 -0.0196276 0.0111577 0.011291 
113 1 32.3425 -0.0819049 23.2631 -0.0504399 -0.0129397 0.0111051 
112 1 33.5806 1.97766 23.5611 0.0147574 0.00980075 -0.000986644 
110 1 34.8347 1.33247 23.6122 -0.0127989 -0.00982013 0.00905359 
109 1 34.8866 -0.029777 23.4668 -0.0199656 -0.00814415 0.0143452 
262 1 25.2377 10.8536 34.5477 -0.00953855 -0.00255078 0.0165597 
137 2 34.586 -3.481 25.0427 -0.00430071 -0.0165981 -0.0104869 
122 1 35.6398 -1.95833 24.4497 -0.0100985 -0.0083269 0.013327 
282 2 21.2785 11.1643 28.868 0.0357651 0.0674174 0.048129 
270 1 21.7222 10.9787 29.8716 -0.00910766 -0.0169246 -0.00975264 
281 2 23.5201 9.20811 27.7688 -0.0666717 -0.0254142 0.0967381 
261 1 22.8343 10.0762 29.7866 -0.00143295 -0.0113382 -0.00953266 
269 1 23.8222 9.48045 28.7398 0.00973339 -0.0190397 0.0160706 
278 2 25.9169 9.3611 27.8348 -0.0244877 -0.00438116 0.0174231 
266 1 25.257 9.52254 28.8062 -0.0280006 0.00446029 0.0141634 
277 2 27.1388 8.20685 29.4873 -0.0125129 -0.0358021 -0.0583926 
259 1 25.6574 9.11899 30.1109 -0.00607105 -0.00283446 0.00366081 
534 2 32.4864 9.74311 27.5231 -0.0617315 0.0270735 0.020964 
525 1 33.9216 11.0334 28.3498 -0.0209395 -0.0173132 0.00380208 
537 2 34.7702 10.674 28.0227 -0.0622949 -0.0321266 -0.0287375 
522 1 32.5495 10.5201 28.3298 0.00585479 0.00638877 0.0252714 
533 2 29.9237 10.5886 27.4768 -0.0135752 -0.0813177 -0.00350247 
256 1 24.5334 10.0559 33.6352 -0.00246231 -0.00374552 0.0165261 
273 1 21.1651 11.42 31.022 0.00759638 0.00220447 0.00913128 
255 1 23.5323 10.0345 31.1003 -0.00512756 -0.0144996 0.00148014 
285 2 20.2082 11.8902 30.8809 -0.013132 0.068047 -0.0307782 
263 1 21.7175 11.0666 32.2651 0.0134725 0.00545604 -0.00103939 
257 1 22.8809 10.2975 32.2084 0.0153619 0.00261926 -0.0142301 
274 1 20.8651 10.5805 33.5389 -0.0379807 -0.00874073 -0.000220451 
265 1 26.6565 8.40304 30.4798 -0.0130211 0.00426957 -0.00477007 
258 1 23.2096 10.2308 33.4929 -0.0088184 0.00576266 0.00322759 
279 2 27.8395 7.40319 31.8971 -0.109355 -0.0927672 -0.0375535 
260 1 26.5649 9.3067 32.5779 0.00667181 -0.00479784 0.0117295 
267 1 27.0318 8.21626 31.6777 0.00506338 -0.00976708 0.0147674 
253 1 24.7863 9.30157 31.3316 -0.0201603 -0.0176787 -0.010017 
283 2 27.2983 10.8908 35.4984 -0.0366484 0.0316784 0.0610342 
280 2 28.4373 10.0585 33.3483 -0.00114591 -0.00898838 0.0533303 
268 1 27.3211 10.0784 33.432 0.011964 0.00178119 -0.0161781 
271 1 26.7421 10.7592 34.5893 0.00980339 -0.00632475 -0.0171436 
254 1 25.234 9.53785 32.5128 -0.0138126 -0.01824 0.00271258 
127 1 34.9424 4.02439 23.0751 -0.00472311 -0.0126912 0.00332659 
264 1 22.7459 10.5666 34.8177 -0.00572847 -0.00397491 0.00457288 
286 2 19.8964 10.4527 32.8988 0.0585678 0.0531793 -0.0364138 
521 1 30.0879 11.2171 28.3834 0.0209107 -0.017216 -0.0128695 
139 2 35.3312 4.98131 22.8671 0.0250023 0.0314132 -0.0270645 
276 1 21.2582 10.5689 34.7935 -0.00744334 -0.032184 -0.00477216 
272 1 24.639 11.5803 35.7023 -0.0111404 0.00174509 -0.00120862 
288 2 20.5878 10.4832 35.7138 0.037702 -0.0659824 -0.0285081 
275 1 23.3591 11.1521 36.0388 -0.0186626 -0.0327588 0.0398968 
513 1 31.5548 11.4512 28.8222 -0.00256336 -0.0218447 0.00490589 
236 1 12.8517 24.8344 -11.4566 0.00359398 0.0222951 -0.0257838 
90 1 29.299 26.2112 -10.1165 0.0127311 -0.0169064 0.00424575 
84 1 25.077 23.4628 -11.9487 0.0121815 0.0403003 -0.00731947 
101 2 29.115 28.3167 -10.4588 0.0208277 0.0638936 0.0352642 
108 2 24.7431 22.8314 -10.1596 -0.0368675 -0.0313105 -0.0484677 
96 1 25.6267 23.224 -10.6338 0.0232652 0.0110226 -0.040492 
106 2 27.0539 23.4959 -8.73357 -0.0417523 -0.0237748 0.0381807 
248 2 13.3536 25.7087 -10.914 -0.000394099 0.0264996 0.0842098 
77 1 27.4226 24.9215 -11.7911 -0.00824188 -0.0186038 0.00289438 
81 1 28.8331 26.7246 -11.5323 0.00272616 0.000422965 -0.00201923 
89 1 28.893 28.2376 -11.4785 -0.0211702 -0.00543772 0.0106617 
93 1 28.5603 25.3199 -9.35686 -0.00587791 -0.00686433 -0.0222196 
94 1 26.6396 23.6715 -9.81744 -0.0282717 -0.000352529 -0.0273442 
83 1 27.5774 24.6685 -10.4243 0.0015236 0.0222412 -0.0329015 
102 2 30.1503 26.732 -9.68529 0.0517922 -0.00769884 0.0750832 
105 2 29.1971 24.935 -8.61664 -0.0804872 -0.0557054 0.0201899 
284 2 25.0603 12.52 -11.786 0.0785903 -0.0972062 0.0316218 
377 1 17.7252 19.5139 27.0303 -0.0207892 0.0256126 -0.0162465 
389 2 17.1705 18.8982 26.4064 0.0542912 -0.0128975 0.0269531 
390 2 19.1014 17.8238 25.7953 0.0117228 -0.0388033 0.0110966 
378 1 19.6886 17.8263 26.8891 0.00769142 -0.00640987 -0.0405482 
371 1 21.9235 17.7826 27.72 -0.00396573 0.00448927 -0.00435858 
381 1 21.0805 17.2874 26.705 0.00914224 0.00879529 -0.0215399 
382 1 23.353 17.5654 27.8429 0.0092771 0.0061593 0.00721528 
394 2 24.1158 16.9528 27.3345 0.0995539 -0.0114324 -0.00046972 
393 2 21.4082 16.5349 26.0856 -0.0961017 -0.0353498 -0.00593928 
369 1 19.2158 19.1433 27.3648 0.00320432 0.0202155 -0.00618131 
517 1 28.3458 14.4346 29.9481 0.010182 0.0126759 -0.00750485 
529 2 27.2092 14.0482 29.8696 0.0273856 -0.0333766 -0.0400015 
518 1 29.0956 12.1615 28.5011 -0.0111233 -0.0213144 0.00794879 
511 1 29.3027 13.4905 29.1886 0.00276147 0.00797771 -0.00504851 
530 2 27.8252 12.0149 28.5344 0.0527785 -0.0581092 0.0857303 
531 2 28.2575 16.3266 31.2366 -0.117106 0.0218863 0.113185 
229 1 12.549 21.6732 31.0089 0.0342436 0.00833123 0.00497643 
515 1 33.9897 12.2016 29.2066 -0.00269111 0.00928786 -0.0165691 
507 1 31.5808 12.9111 28.8869 -0.00158427 0.0218985 5.27366e-05 
509 1 32.9788 13.263 29.3763 -0.0120562 -4.06383e-05 -0.00684912 
526 1 35.3856 12.6016 29.3896 -0.0255975 0.010514 0.0166633 
532 2 30.0819 18.0266 32.2666 -0.000765701 -0.055257 -0.0120204 
520 1 30.614 16.9638 31.9783 -0.00173691 -0.020216 0.0199952 
73 1 27.8949 26.8137 34.38 -0.0134099 0.005914 0.0125166 
99 2 27.0922 27.7453 30.6122 0.0178875 0.0544526 0.0888903 
387 2 18.4152 24.0991 30.8921 -0.0732961 -0.0155455 0.00656506 
386 2 16.6345 21.3282 27.3102 0.0344404 0.0339565 0.0105236 
374 1 17.37 20.7359 27.6499 0.0415398 0.0104049 -0.00966498 
367 1 18.3267 21.5364 28.6017 0.00579078 0.0251814 -0.0164212 
372 1 23.7078 19.6217 29.2473 0.0229605 0.0240828 0.00850725 
366 1 22.1051 19.8295 29.323 -0.000127364 0.00341662 0.0273404 
365 1 21.2932 19.1177 28.3406 0.0135712 0.00867881 -0.00414709 
384 1 24.3044 18.5713 28.4818 -0.00802608 0.00192013 -0.00109078 
363 1 20.0311 19.7621 28.243 0.00690687 0.0194541 -0.0172282 
361 1 19.7329 21.2196 28.6229 0.00966974 0.0122789 -0.0165765 
396 2 25.2713 18.6141 28.9925 0.0492775 -0.0191397 0.0479285 
80 1 26.2674 27.1445 32.6422 0.00706085 0.0122337 -0.02655 
78 1 26.1958 24.4426 35.6115 -0.00473178 -0.0308397 0.010691 
75 1 28.309 25.9661 35.4848 -0.0037479 0.0171911 0.00212845 
226 1 13.0003 23.9657 35.4015 0.0170718 0.0194285 0.00667929 
512 1 29.9924 15.9411 31.0155 0.0271865 0.011873 -0.0131765 
519 1 28.6122 15.5062 30.5838 -0.0118959 0.00709669 0.0149381 
528 1 35.8014 13.6195 30.2982 0.0145586 -0.0310859 0.00488496 
88 1 24.8348 27.0601 32.0419 0.0341975 0.0330154 -0.00145923 
241 2 12.8655 20.7079 30.6955 0.0354725 -0.0286287 -0.0464791 
505 1 30.5855 13.7921 29.6182 -0.018074 -0.00223043 -0.000633746 
506 1 30.8236 15.0552 30.279 0.00814476 -0.00695043 0.0148294 
508 1 32.1408 15.5886 30.4347 -0.0039696 0.000291676 -0.00183984 
87 1 27.3602 27.609 31.7828 0.0275515 0.0275164 0.00878477 
510 1 33.2866 14.6034 29.9313 -0.00647225 0.00718479 -0.0147193 
516 1 34.6879 14.5599 30.3113 0.000467801 0.00678214 -0.00333784 
514 1 32.6715 16.617 31.2226 0.014662 -0.00457244 -0.0125022 
527 1 35.0575 15.9475 30.902 0.015316 0.00116444 -0.00798379 
524 1 34.1466 16.7763 31.2461 -0.0231662 0.00136264 0.00901108 
523 1 31.8827 17.6877 31.9257 -0.00937388 -0.0334801 0.0152676 
98 2 30.0019 29.3418 35.1541 0.00637965 -0.0154395 0.0332544 
231 1 13.3857 22.8387 31.5014 -0.000413334 -0.0138244 -0.00565003 
385 2 16.6713 23.1674 28.9893 -0.0149653 0.0726307 0.0305047 
373 1 17.6436 22.561 29.4505 0.0242672 0.0111656 -0.00785784 
375 1 18.5565 23.1655 30.3806 -0.0144753 0.0136896 0.0094004 
224 1 12.6705 23.5847 32.5568 -0.0222703 -0.0119976 0.0036682 
370 1 22.214 21.2216 31.59 -0.0109011 0.00371375 -0.00402077 
364 1 21.5298 20.6577 30.4077 -0.000814141 -0.0177586 0.0152644 
380 1 23.7281 21.0997 31.4218 0.0214563 -0.00327244 -0.00411268 
383 1 24.3951 20.3078 30.4848 -0.000285148 -0.00179115 -0.0125849 
368 1 19.7002 22.4856 30.8602 0.0181765 0.0246321 -0.00535191 
376 1 20.4903 23.1528 31.8337 0.00961954 -0.035981 0.0142625 
379 1 21.6779 22.4869 32.24 -0.00391799 0.00933746 -0.00865254 
392 2 24.0823 21.821 32.1515 -0.0231324 0.0449485 0.0815842 
362 1 20.3966 21.5388 29.9099 0.0239126 -0.0162197 -0.015086 
103 2 23.1089 25.6224 32.1658 -0.0399247 -0.000725997 -0.0493118 
104 2 22.9874 24.0095 33.7774 -0.0123629 0.0706059 0.0518621 
395 2 25.168 20.6709 29.7995 0.00692321 -0.0806496 -0.0577281 
91 1 24.0285 26.0337 32.4523 0.019478 0.0370812 -0.0138295 
82 1 24.6803 25.1297 33.7361 0.00860951 0.00378268 -0.000846642 
92 1 23.9495 23.9125 34.241 -0.0089905 0.0224854 -0.00302544 
535 2 32.2962 18.1922 32.8083 -0.0952928 0.123467 0.0697681 
536 2 34.7471 17.6855 31.4068 0.0819932 -0.0356879 -0.0561549 
247 2 13.7721 25.9973 34.983 0.0516277 -0.0372155 -0.0287507 
232 1 13.3973 24.7473 33.0865 0.000602808 -0.0137367 -0.0141768 
244 2 14.2101 25.2157 32.548 0.0552976 -0.00473501 0.0717822 
235 1 13.2748 25.0974 34.4678 0.0158472 0.00168224 0.00975366 
243 2 14.305 23.1113 30.8209 -0.043068 0.00888243 -0.0533655 
95 1 23.8557 23.0665 35.4009 -0.011336 -0.000688535 -0.0335417 
388 2 20.2892 24.0716 32.4588 0.0118345 -0.119238 0.0498851 
391 2 22.1877 22.3349 33.2197 0.106454 -0.0203064 0.0195745 
86 1 29.4767 28.453 35.2661 -0.000403741 -0.00848557 -0.00190747 
74 1 26.6211 26.26 33.7981 0.0328815 -0.00532526 0.00110635 
76 1 25.9163 25.2914 34.545 -0.0364949 -0.00378676 -0.0221437 
79 1 28.4851 28.1366 34.0366 0.00428231 -0.0159038 -0.0213163 
85 1 28.3755 28.3016 32.4797 -0.0106442 -0.0113407 0.00408605 
97 2 29.354 27.9533 32.0065 -0.0296932 -0.0475844 -0.0120069 
100 2 24.6331 27.6695 31.2929 0.0291825 -0.00368029 -0.0436013 
539 2 36.1656 16.1974 30.6723 0.0781749 -0.0225225 0.0465922 
107 2 23.1547 22.265 35.2102 -0.0213363 0.0447229 -0.000656667 
356 2 51.1952 -9.1531 11.0415 -0.00674206 -0.0119411 0.0723804 
340 1 50.2977 -5.0436 11.8352 0.0234882 -0.00701869 0.00652242 
355 2 50.3215 -6.62533 10.6727 0.0139174 0.0169824 -0.116527 
352 2 50.4215 -4.23388 11.1282 0.0320047 0.0160411 -0.0795925 
343 1 50.7342 -6.31754 11.7492 -0.0109846 0.0166026 -0.00484553 
344 1 51.721 -8.77858 12.016 -0.00567804 0.0138571 0.00736951 
330 1 52.0873 -7.69404 14.9405 -0.00320707 0.0136455 0.0156521 
336 1 52.0607 -9.06299 14.4509 0.00574907 -0.0216956 -0.0115419 
329 1 51.8637 -7.48424 16.2435 0.00379791 0.0232721 0.000140062 
328 1 51.7963 -6.89845 13.8058 -0.00585233 -0.00982788 -0.0221298 
360 2 53.322 -10.1358 15.7793 -0.0356537 0.106964 0.0809824 
346 1 51.458 -9.96759 16.5278 -0.00872593 -0.0265082 0.0219118 
327 1 51.3531 -6.17453 16.3499 -0.0245583 -0.00337637 0.00536204 
333 1 50.2761 -5.87624 17.3999 0.00416763 -0.0123902 0.00250695 
335 1 51.4055 -8.59516 17.0111 0.00507588 0.0210372 -0.0071502 
358 2 51.0242 -10.7022 17.2222 -0.0682847 0.0070148 0.106688 
334 1 51.3914 -7.4023 12.4523 0.021171 -0.0195731 0.00460167 
348 1 52.3778 -10.0914 15.4677 -0.00764958 0.0156502 0.0132294 
347 1 51.7975 -9.58994 13.0974 0.00114974 0.00793853 0.0129178 
325 1 51.0685 -5.24381 15.217 -0.000791751 0.00410446 0.00349877 
326 1 50.8477 -5.77732 13.976 0.000695907 0.00493661 0.00406416 
331 1 50.7056 -3.78527 15.5806 0.00055324 0.0125633 -0.0126088 
332 1 50.8226 -4.56987 13.0482 -0.00417805 -0.00635742 -0.00272907 
351 2 51.1266 -2.52035 12.2337 0.0304347 0.102462 -0.0281341 
337 1 50.5022 -2.84741 14.4001 -0.0131541 -0.0294196 -0.00578829 
339 1 50.9632 -3.22553 13.1012 -0.00717762 -0.00815056 -0.00259594 
349 2 50.0638 -1.95992 14.7372 -0.0174896 -0.0648057 -0.0247608 
338 1 50.4754 -3.70733 16.9398 -0.00868851 0.0147352 -0.0270192 
134 2 36.273 -2.38373 25.2089 0.0395034 -0.0343019 0.0327248 
458 2 49.6002 11.7613 19.5853 0.0452172 0.121024 0.0796138 
342 1 49.4207 -7.15609 17.9608 -0.0306364 0.00709483 -0.0104845 
345 1 50.1243 -8.35851 17.793 -0.00631665 -0.000723627 0.014057 
357 2 49.9279 -9.08526 18.4555 -0.0310642 -0.00672478 -0.0053586 
354 2 48.4452 -7.09522 18.3681 -0.00195126 -0.0617452 -0.0395593 
115 1 36.0446 -0.679356 23.7606 0.0125454 0.011386 -0.0234154 
133 2 37.4933 -0.464234 25.3493 -0.0229395 0.0425054 0.0512571 
121 1 37.0236 0.0959336 24.5071 -0.0109044 -0.0138281 -0.0125673 
350 2 50.1531 -2.53921 17.2828 0.0452201 0.058023 0.0266642 
341 1 50.8271 -4.68334 17.962 -0.00776951 -0.0120459 -0.00934507 
353 2 51.7643 -4.17132 18.0962 -0.0123524 -0.013105 0.0380983 
136 2 37.2132 3.84505 22.9795 -0.0142266 0.0261272 0.0348898 
359 2 52.0177 -10.5577 12.7079 0.0311655 -0.0961332 -0.0923025 
459 2 46.6042 11.1995 23.0495 0.0221062 0.0413976 -0.0127977 
123 1 37.2608 1.49923 24.1595 -0.0168003 0.0119053 0.0271075 
135 2 37.9379 1.49667 23.2398 0.088401 -0.0429379 0.0548796 
124 1 36.1864 3.44587 23.288 -0.00927791 -0.00953769 0.0315866 
116 1 36.0104 2.03345 23.48 -0.0155783 0.0107458 -0.00038429 
445 1 47.9207 11.9239 21.5387 0.0240148 0.0118957 0.00293332 
457 2 47.8938 10.6982 21.566 0.0307211 -0.0135007 -0.055239 
32 2 60.1772 31.7761 -7.29038 0.113344 0.0528761 0.0829491 
495 2 51.1702 27.6927 -11.7552 -0.00338249 0.00700989 -0.0129791 
449 1 49.0267 13.5894 18.3755 0.00888107 -0.00765345 0.00614272 
441 1 48.3959 14.8251 18.1904 0.0237192 0.00318354 0.011111 
453 1 46.9557 15.9606 16.7965 0.00143247 -0.0206163 -0.00612423 
465 2 46.8326 16.4095 15.8193 0.0139644 -0.0624567 -0.0320065 
443 1 46.3937 16.6815 17.9745 -0.0170214 -0.0213115 0.0236224 
461 2 49.4773 13.2175 17.581 0.0512663 -0.0432131 0.0266367 
450 1 48.3876 15.5281 16.8248 0.00192098 0.00542069 -0.00141408 
462 2 49.0766 15.4236 15.9289 0.0193946 0.0120145 -0.0879522 
466 2 44.9745 18.3349 17.3996 0.0826948 0.00101545 0.0179196 
439 1 48.1701 12.8931 20.4649 0.0179883 0.0266694 -0.00149038 
435 1 47.3263 14.7566 19.3512 0.00511567 -0.00599942 -0.0039462 
433 1 47.0732 13.8484 20.4284 0.00513548 -0.0228798 -0.0113016 
448 1 47.0373 14.1828 23.8854 -0.0130067 0.0187121 0.0124138 
440 1 46.9848 13.5664 22.6547 -0.0279475 0.0233134 0.00161005 
451 1 46.5418 15.5036 23.8814 -0.0161141 0.00906489 0.00725353 
436 1 46.0882 15.6852 21.5449 0.0122176 0.00692057 0.00173152 
442 1 45.9928 16.2227 22.8286 0.0250966 -0.0204979 0.0270191 
452 1 45.1072 17.3789 22.9915 -0.00772401 -0.0225169 -0.0121426 
438 1 45.4695 16.2115 20.306 0.00629258 0.0141986 0.0154094 
437 1 46.3271 15.6894 19.0693 -0.00585623 -0.00916796 0.00101976 
434 1 46.6968 14.4656 21.6771 -0.00453976 -0.00777411 0.0164394 
444 1 45.084 17.5355 20.5436 -0.013381 -0.0175764 -0.00206268 
455 1 44.5673 17.8157 21.8683 -0.0145698 0.00585537 -0.00955712 
456 1 44.7507 17.96 19.3142 0.00319379 -0.00414363 -0.0220318 
467 2 43.9868 18.6964 21.99 0.0623521 -0.00114661 -0.0035855 
454 1 45.4021 17.7135 18.1329 0.00635413 0.0125091 0.00540181 
468 2 43.8952 18.7344 19.2517 -0.0161926 -0.00212712 -0.0303386 
205 2 57.9911 27.1469 22.8727 -0.030898 -0.0755885 0.102805 
538 2 36.2328 11.7961 28.9658 -0.0147539 -0.0267048 0.0282483 
193 1 58.8237 27.5901 23.4227 -0.00744249 0.00633064 0.0064341 
209 2 59.0207 30.9048 20.3693 0.00437121 -0.0501833 -0.0121126 
460 2 47.2517 13.6669 24.7348 0.0145855 -0.00302701 0.0213624 
464 2 44.85 17.9522 23.9835 0.0328507 0.0404295 -0.0129162 
463 2 46.0421 15.5513 24.9541 0.00385819 0.00578297 0.0332936 
503 2 54.4002 22.0415 30.5974 -0.0391552 -0.11606 -0.0126104 
492 1 56.6807 23.7905 30.9081 -0.0210544 -0.034895 0.0180406 
504 2 56.6909 22.7588 30.2165 0.107724 -0.00189352 0.0225443 
490 1 57.3526 24.9409 31.018 0.023116 -0.0125191 0.00284121 
502 2 58.4119 24.6174 30.7614 0.0512241 -0.107897 -0.031357 
207 2 58.3808 26.7982 25.6383 0.0279961 0.0188238 -0.0428745 
195 1 58.983 27.2041 24.8366 -0.0415521 -0.0418792 -0.00662866 
540 2 36.6717 13.809 30.7708 0.0532355 -0.0835723 -0.0180479 
499 2 51.0451 23.4952 33.6147 0.0244041 0.0688847 0.0758262 
487 1 51.6806 24.405 33.7245 -0.0229989 -0.0150069 0.00540149 
500 2 52.8372 22.0147 31.767 0.0586907 0.00142051 -0.0148951 
488 1 53.1329 23.1668 31.9475 0.00751215 -0.0206622 -0.0160389 
491 1 54.3407 22.9562 31.3471 0.00451432 0.0126753 0.018476 
496 2 50.179 25.2943 35.0457 -0.0907019 0.0735823 0.0387658 
484 1 51.1324 25.4089 34.4201 -0.0100384 0.0157196 -0.00197493 
483 1 51.8382 27.4749 35.427 -0.00991639 0.0065188 0.0082455 
478 1 52.919 24.1978 32.9954 0.0112703 0.0203212 0.0163855 
476 1 52.0962 26.3547 34.4068 -0.0103541 0.0190544 -0.0178134 
481 1 52.4533 28.5432 35.2004 -0.0089535 -0.00769484 0.0137097 
485 1 55.5478 29.9004 33.5747 -0.0169823 0.0072274 0.0162156 
480 1 55.2608 24.0041 31.2939 -0.0196175 -0.0284987 -0.00285446 
479 1 56.9637 26.1754 31.9021 0.0241765 -0.0288863 -0.00375488 
489 1 57.9032 27.3169 31.9324 -0.0132728 -0.0137525 0.0163003 
501 2 58.8555 27.2052 32.2626 0.0255068 0.0617566 -0.0480065 
486 1 57.3875 28.4792 32.6614 -0.0219991 0.00429139 0.00914763 
474 1 55.0641 25.2056 32.1836 -0.0123115 -0.0056579 -0.00164407 
472 1 53.849 25.3206 32.7553 -0.0142652 0.00662887 0.0153863 
473 1 55.5849 26.4145 32.2315 -0.00502882 -0.00756462 0.0465285 
470 1 53.1659 26.3621 33.5278 0.00652688 0.00137147 -0.0134962 
471 1 55.365 27.4729 33.0996 -0.0254761 0.0115887 0.00400488 
469 1 54.0884 27.4923 33.5777 0.0111741 -0.0281414 -0.00270549 
475 1 53.5659 28.5676 34.3515 -0.0176154 0.00257064 0.00843508 
482 1 54.5409 29.697 34.5641 -0.0128906 0.00121997 -0.0327983 
477 1 56.012 28.7108 32.9095 0.0183329 0.0195451 0.00441009 
494 2 54.1464 30.4783 34.9309 -0.0444692 0.0111601 0.0702684 
497 2 55.9545 30.8243 33.9713 -0.0037551 -0.0907501 0.0566309 
498 2 58.403 28.7043 32.9992 -0.0272389 -0.135711 -0.0179675 
446 1 48.7837 12.563 19.2613 0.00995559 -0.0154586 -0.00420909 
206 2 58.3341 28.8759 21.2436 -0.134989 -0.0140816 0.0363771 
194 1 59.3218 29.3051 21.6621 -0.00792859 -0.0106838 0.00391845 
187 1 59.639 28.4594 22.8451 -0.0169694 0.0205856 -0.00720862 
493 2 52.7613 29.5803 35.6181 -0.00708934 0.0136839 -0.0785648 
447 1 47.0373 12.2654 22.5231 0.0481849 0.00552578 0.0230805 
197 1 59.6982 30.4201 21.2162 0.0143238 0.02133 0.0113976 
208 2 59.6007 26.4096 27.1546 0.0151964 0.0410628 -0.0856505 
145 1 71.7302 -9.48057 22.258 0.0048529 0.00757047 -0.000559906 
152 1 69.8977 -8.68476 23.7227 0.0132554 -0.0118497 -0.00963433 
151 1 71.0125 -8.84099 21.1903 -0.0135028 -0.0171903 0.00368818 
157 1 69.8663 -7.66726 21.5079 -0.0180278 -0.00654566 -0.00728427 
169 2 69.95 -6.53349 20.9072 -0.072181 0.0132356 -0.0352247 
159 1 69.6133 -7.36419 22.8262 0.0127489 -0.00202783 0.0339405 
171 2 69.8423 -6.53364 23.4646 0.0672914 0.0588627 -0.0757513 
146 1 70.8916 -9.76181 23.5746 0.0139102 -0.0194502 -0.00725445 
158 1 71.3443 -9.2667 19.8314 0.0105551 0.0236613 0.0170654 
170 2 71.1558 -8.69975 18.8182 -0.0785114 -0.00874786 0.0445428 
147 1 72.5061 -10.5338 21.8772 -0.00598472 0.00683846 -0.0182456 
153 1 72.9748 -10.8397 20.5953 -0.0104101 0.0106172 0.0220285 
161 1 72.5677 -9.90497 19.5586 0.00622326 -0.00447874 -0.0270408 
173 2 73.2135 -9.36447 18.7788 -0.00350746 0.0899352 0.0527399 
149 1 73.0812 -11.4237 23.0346 0.00693968 0.0109552 -0.0312868 
160 1 69.1935 -9.28468 24.766 -0.0215904 -0.0271883 -0.00550717 
172 2 68.3822 -8.98239 25.4245 0.00997263 -0.0641528 -0.0252471 
176 2 71.3263 -11.5324 28.053 -0.00992993 0.0287844 -0.0963295 
163 1 69.3039 -10.5301 25.5968 -0.0127974 -0.00690327 0.0179996 
164 1 71.4997 -11.1484 27.07 -0.00864532 -0.03522 0.00150994 
154 1 70.8518 -10.8183 25.9456 -0.00359568 -0.0135667 -0.00565783 
148 1 71.4423 -10.5991 24.5454 0.021619 -0.00218437 0.0171895 
175 2 68.787 -11.3213 25.1956 0.0132549 0.021548 0.0251041 
150 1 72.6099 -11.559 24.3684 -0.000253414 -0.0153456 0.00179878 
24 1 63.367 27.8566 -9.10416 0.00169207 -0.00765414 -0.00159489 
12 1 62.8647 29.2613 -8.61102 0.00519597 -0.0231728 -0.0135927 
22 1 64.7052 27.7165 -9.57773 -0.0134244 -0.00947541 -0.0143517 
11 1 65.601 28.6399 -8.87717 0.0198306 0.00993321 -0.00785688 
36 2 62.7177 26.7697 -8.76831 -0.0964658 -0.00324195 -0.0207687 
5 1 65.3087 29.6986 -8.01646 0.00270313 0.00653999 -0.01919 
23 1 61.6381 30.1944 -8.36467 0.0249168 0.0105189 0.00666133 