ITEM: TIMESTEP
910000
ITEM: NUMBER OF ATOMS
576
ITEM: BOX BOUNDS pp pp pp
-1.2000000000000000e+01 8.4000000000000000e+01
-1.2000000000000000e+01 3.6000000000000000e+01
-1.2000000000000000e+01 3.6000000000000000e+01
ITEM: ATOMS id type x y z vx vy vz 
104 2 3.44528 -8.04918 -6.81814 -0.0650073 0.0852622 0.0433333 
82 1 3.32266 -7.85132 -9.10018 -0.00260183 0.0156938 -0.010474 
76 1 4.01843 -6.69694 -9.64373 -0.0132489 0.00438422 -0.0170646 
92 1 2.96865 -7.67547 -7.65672 -0.00123852 -0.00677749 -0.0170643 
91 1 3.92521 -9.24875 -8.903 -0.0382112 0.0166315 -0.00204177 
95 1 2.10208 -6.32703 -7.33289 -0.0148161 -0.0147205 0.0178307 
355 2 5.54138 -7.195 -11.0223 -0.0279199 -0.0410197 0.0642016 
103 2 5.00797 -10.7831 -8.08093 0.0871708 0.0218439 0.10274 
88 1 4.46519 -10.1988 -8.66954 -0.0108223 0.0154336 -0.0154735 
74 1 4.84668 -6.32082 -10.7957 0.00122112 -0.00971214 0.0130298 
94 1 1.0432 -3.55002 -9.64926 -0.0109358 0.00806106 0.00402316 
77 1 3.61169 -4.01092 -10.0007 0.00326025 0.0121422 0.00522965 
78 1 3.20925 -5.42219 -9.51457 -0.015099 0.00750341 -0.00920676 
83 1 2.35532 -3.16127 -10.2395 0.00114164 0.00110862 -0.0011074 
106 2 -0.380649 -4.54053 -8.20804 0.0399166 0.0646945 -0.0395571 
96 1 0.786486 -4.69069 -8.90166 -0.0127683 -0.0325257 -0.00699015 
102 2 0.465358 -2.5893 -9.71866 0.0506221 -0.0138489 0.0741506 
84 1 2.04105 -5.412 -8.58144 0.0212583 -0.0420432 0.0193468 
107 2 2.34902 -5.87148 -6.27658 0.0457597 -0.105599 0.039096 
93 1 2.49988 -2.15356 -11.1183 0.0145713 0.00049936 0.0168471 
75 1 4.12327 -4.0372 -11.2647 -0.0221334 -0.0232048 0.0194693 
73 1 5.00392 -5.34444 -11.5997 -0.0248597 0.0147564 -0.0148801 
284 2 9.77233 10.2303 -6.98808 0.023231 -0.0472223 -0.121755 
270 1 -9.98717 -11.8682 8.7701 -0.00628499 -0.0182971 -0.00695882 
269 1 -10.7643 -11.6081 11.3172 -0.0232605 0.0109567 0.00994302 
285 2 -10.1051 -10.9445 8.22468 -0.0516366 -0.0235893 -0.0212072 
90 1 3.63399 -1.46213 -11.6571 -0.00324766 0.00720967 -0.0126866 
210 2 10.4807 10.5756 -7.28871 0.0258778 -0.0130617 -0.0747867 
281 2 -9.86968 -10.7781 11.3465 0.121466 0.0344348 -0.0455983 
314 2 10.4387 -10.948 10.3052 0.0479046 0.0396764 -0.0385775 
266 1 -11.8179 -12.0691 11.8124 0.00545527 -0.0381704 -0.0171755 
244 2 5.90169 -0.805821 29.1161 0.0268097 -0.0235271 0.123294 
252 2 0.625585 3.38937 24.8413 0.0720563 0.0318857 0.0547445 
537 2 5.98304 10.4704 19.4475 0.0262442 0.037803 0.00413022 
540 2 5.55724 9.67911 19.5883 0.0391087 -0.0322788 -0.0437525 
246 2 -3.45108 0.042935 29.1375 0.0279898 -0.0540876 0.0146001 
234 1 -2.40918 0.192474 28.6249 -0.0143685 0.0109206 0.0255443 
225 1 -1.23453 -0.433472 29.4812 0.0267869 0.0189301 0.0218272 
221 1 -0.192906 0.264908 27.4943 0.00540969 8.3785e-05 0.038326 
219 1 -0.0738721 -0.142035 28.8016 -0.00835178 0.0251245 -0.00743023 
218 1 2.54265 -0.567611 28.8791 -0.0139646 -0.00340708 0.00530813 
217 1 1.3904 -0.125383 29.6624 0.0139849 -0.0232984 -0.0103532 
226 1 3.5904 0.058455 26.8261 -0.0177811 -0.0079368 0.031611 
220 1 2.31602 -0.0291515 27.5497 -0.00453917 -0.0233105 0.00235268 
357 2 -1.82284 3.23549 26.429 -0.0423011 0.0247563 0.0164342 
249 2 -3.54846 1.63003 27.2814 0.036855 -0.037169 -0.0386467 
237 1 -2.41958 1.1333 27.6433 0.0135334 -0.0245482 0.00034049 
227 1 -1.32904 1.12426 26.8188 -0.0120911 0.000700142 0.0168063 
238 1 -1.05599 2.42233 26.0755 0.00742882 0.0180586 -0.0075484 
240 1 0.0781515 2.49453 25.3279 -0.0329565 0.0161036 -0.00248627 
228 1 1.15546 1.48215 25.8063 0.0174197 0.0324362 -0.00896739 
222 1 1.04666 0.684116 27.1292 -0.00388471 0.00026142 0.015114 
236 1 2.4374 1.41132 25.4441 0.000809833 0.0160974 -0.00931809 
235 1 4.93087 -0.231578 27.4131 0.011178 -0.00545513 -0.0168562 
239 1 3.71896 0.999105 25.7651 -0.0325342 0.0217111 -0.011119 
251 2 4.25077 0.568645 24.6802 0.0689409 -8.42498e-05 -0.0465154 
232 1 5.02712 -0.993026 28.6214 0.00271357 -0.00299186 -0.0381024 
247 2 5.77352 0.306454 27.2442 -0.0209359 -0.0269083 0.0297736 
97 2 6.66166 -5.95277 35.1911 0.0574106 0.0369758 0.0244747 
79 1 5.92859 -5.19242 35.4561 -0.0103584 -0.0122562 0.00376483 
245 2 -2.53896 -1.09908 31.1188 0.00816078 -0.0130362 -0.0213482 
233 1 -1.35393 -1.10731 30.6456 -0.00896726 0.014393 -0.00314091 
230 1 -0.151282 -1.39854 31.405 0.0111439 0.0203339 -0.000754134 
242 2 -0.374685 -2.05335 32.1676 0.035922 0.0398388 0.00110397 
223 1 1.0308 -0.76426 30.9857 -0.000479556 -0.00196471 0.0180772 
86 1 5.85526 -4.07411 34.6047 0.0178576 0.0185968 0.0112652 
101 2 5.95573 -3.96095 33.5581 0.055403 0.0325086 0.148301 
241 2 2.55885 -0.448421 32.3104 0.0297725 0.0031824 -0.0756492 
89 1 5.04395 -3.2208 34.8891 0.0276737 0.00989945 0.00173477 
229 1 2.51827 -0.86579 31.3425 0.00250095 -0.0150097 0.00313478 
231 1 3.62272 -1.48467 30.7328 -0.010564 0.000268479 -0.0196943 
224 1 3.77633 -1.2032 29.3202 0.000316254 -0.000659251 -0.0142256 
243 2 4.84093 -1.93132 30.5015 0.00381302 0.0926085 0.0551773 
81 1 4.3772 -2.8038 35.817 0.0241409 -0.00563411 -0.00892505 
287 2 5.36468 12.7222 -3.30691 -0.0645306 0.0759166 -0.105768 
255 1 -11.7103 34.8211 9.59646 0.0302819 0.010958 -0.0310091 
261 1 -10.7886 35.7482 9.97076 0.019179 -0.00592496 -0.00477396 
559 1 11.7423 29.7566 -11.2502 -0.00681362 -0.0112311 -0.00797708 
276 1 -10.9652 31.949 6.11839 -0.0281276 0.00649924 0.0193701 
576 2 7.05168 27.524 -10.0612 0.022454 -0.00825338 -0.0703163 
562 1 7.04322 28.1049 -11.1262 0.00444288 0.0191911 0.0077644 
177 2 10.9115 33.2242 -9.93426 0.0523317 -0.0784036 -0.0753298 
550 1 10.2956 30.2383 -11.6204 0.00766186 -0.001826 -0.00866053 
560 1 10.063 30.8314 -10.4952 0.00963699 0.00141621 -0.0257506 
563 1 10.4496 32.812 -9.08312 -0.00921336 -0.000332046 0.0142922 
552 1 9.3991 31.926 -9.49913 -0.020747 -0.00834974 -0.0126064 
572 2 8.57009 31.6032 -9.06046 0.0106652 -0.0613382 0.0346123 
33 2 5.54787 13.084 -4.05651 -0.03947 -0.0452035 0.115202 
273 1 -9.40807 35.3776 7.71069 0.0130229 0.0113756 -0.00663807 
288 2 -11.5576 31.306 5.32861 -0.0389538 0.0497832 -0.042051 
564 1 7.31891 28.7655 -11.8825 -0.0124821 -0.0221192 0.00360155 
274 1 -10.0142 32.8859 6.5172 0.00345035 0.0171418 0.00528152 
575 2 -8.51675 35.517 7.07156 -0.0114876 -0.0151017 -0.0929155 
286 2 -9.11102 32.611 6.25391 -0.00527711 0.0273134 -0.0229267 
264 1 -11.9869 31.8834 7.17708 0.00932306 -0.00293543 -0.00613303 
257 1 -11.1951 34.1132 8.32396 -0.0211162 -0.0133723 0.0384261 
263 1 -10.3505 34.256 7.18354 -0.0150726 0.0105039 -0.0233843 
421 2 7.28489 30.6338 34.813 -0.0335079 -0.00219254 0.0598676 
558 1 8.73663 30.3794 30.1528 -0.0013584 -0.0159698 -0.00829319 
549 1 9.28518 29.1828 30.2284 -0.0152033 0.0113467 0.017534 
566 2 8.72105 31.0496 29.217 -0.0761423 0.0327269 0.00863903 
548 1 10.823 26.9338 34.5994 0.0188759 0.0233253 0.0181095 
544 1 9.31357 29.4918 35.4091 -0.00478157 -0.0130545 0.00760886 
553 1 10.5587 26.3558 33.2749 0.0276453 0.00367133 -0.0106437 
554 1 9.96944 28.1059 30.0852 0.00672582 0.0349493 -0.000729824 
547 1 10.2498 27.4015 32.3124 -0.00177361 -0.00429815 0.0473613 
557 1 10.494 26.97 30.8087 -0.0132749 -0.000718947 -0.0138718 
541 1 9.25314 28.0877 33.3351 -0.0183444 -0.0131471 -0.00922057 
543 1 7.83618 27.9661 33.1577 -0.0109876 0.00895893 0.00217109 
542 1 10.0841 28.9963 34.2495 0.0137824 -0.0236422 -0.000608769 
569 2 8.21747 27.1521 32.2415 0.0397093 0.0949953 0.0450291 
555 1 11.3032 28.2773 34.7849 0.00464162 -0.033433 -0.0318357 
565 2 11.1975 25.705 32.8006 0.0320957 0.00118045 -0.0544927 
561 1 7.77738 30.4205 31.2313 0.0199782 0.0206719 -0.0191499 
573 2 6.05549 30.7873 32.5926 0.0730975 0.00473171 0.00480517 
545 1 7.36712 29.308 33.4417 0.00561986 0.00289151 0.0174963 
551 1 6.91139 30.198 32.2963 -0.0311978 -0.0203916 0.0177017 
546 1 7.97849 29.7293 34.8926 -0.000486851 0.00106263 -0.0155603 
567 2 11.5575 26.5607 35.2632 0.0868423 -0.0829367 -0.0559691 
570 2 -4.19345 32.79 12.3497 -0.0738184 0.164338 0.00395286 
385 2 -5.01769 32.6745 12.521 -0.0253779 0.0502494 0.0451061 
458 2 19.8629 -6.71903 -10.0942 -0.0240785 -0.0654931 -0.0621339 
461 2 19.9046 -5.91891 -7.8161 0.0417065 -0.0404646 0.0141721 
449 1 20.4859 -5.30401 -8.66089 -0.00118913 -0.0133839 -0.00745636 
446 1 20.375 -5.82806 -9.88742 0.0099997 -0.00402176 0.0264642 
439 1 21.2923 -4.95853 -10.804 0.0260142 -0.00974594 0.0144361 
435 1 21.5052 -2.7092 -9.33124 -0.00186884 -0.0218 0.0126597 
441 1 20.7589 -3.74248 -8.77331 0.0304126 0.00380236 0.00805958 
433 1 21.5011 -3.60648 -10.8375 0.0119325 -0.0261665 -0.0264692 
437 1 21.4228 -1.34324 -9.09341 0.0167009 0.0162411 -0.00713222 
438 1 21.3901 -0.543966 -10.2905 -0.0155705 -0.0138928 -0.00602511 
434 1 21.9661 -2.55907 -11.6776 0.0212163 -0.0160398 -0.00619705 
454 1 22.3269 -1.24426 -7.84266 0.0046427 0.0396003 0.0109674 
436 1 21.9801 -1.08192 -11.4816 -0.0216005 0.0292871 -0.0162402 
453 1 22.777 -2.42038 -5.9957 0.0137267 3.38502e-05 -0.0021171 
456 1 22.3485 0.293592 -8.09978 0.00234695 0.000716956 -0.0106817 
444 1 22.444 0.438171 -9.67565 -0.00242627 -0.0128147 -0.00456877 
468 2 21.8512 1.11818 -7.39613 0.0123735 -0.0905626 0.0462945 
455 1 23.002 1.45556 -10.6846 0.00390348 0.0148097 -0.00858467 
452 1 23.5112 0.584221 -11.8539 0.0302973 -0.0218381 -0.0100784 
467 2 23.1981 2.50042 -10.7254 0.0386688 -0.0497222 0.116062 
459 2 21.1579 -6.78968 -11.6846 0.0437777 0.011845 -0.0315911 
342 1 25.3203 8.16595 9.8084 0.00418863 -0.00887816 0.00704405 
443 1 21.6883 -2.08758 -6.8335 -0.00322384 0.00255405 -0.00958617 
465 2 20.7855 -2.47814 -6.59755 -0.106816 -0.05733 0.00930371 
462 2 24.651 -2.85408 -4.8789 -0.00717781 0.0365402 -0.00471741 
450 1 24.0664 -1.9328 -5.4637 -0.0229089 0.000571608 0.00468731 
504 2 30.4926 -5.87877 8.1051 0.057122 -0.038615 0.0279903 
71 2 30.9316 -6.35921 8.51642 0.0583283 -0.0581729 -0.072302 
351 2 23.6989 0.774912 10.9786 0.0207798 -0.0448661 -0.00329371 
325 1 24.2844 4.41596 10.3184 0.00207704 0.00953283 0.00165649 
326 1 23.0104 3.73009 10.1653 0.00176107 0.000332733 0.00173771 
328 1 21.8907 4.3135 9.52655 0.00324599 -0.0128842 -0.0105843 
334 1 21.0524 3.22428 8.67215 -0.0145623 -0.0120123 -0.00998693 
343 1 21.1729 1.66457 8.61431 -0.0167273 0.000910854 -0.0158182 
332 1 23.0511 2.23926 10.4 0.0181033 -0.0351108 -0.0419447 
330 1 21.9094 5.60762 9.02181 0.00243274 0.00589194 -0.0016494 
356 2 19.4384 2.97325 7.18524 0.0622892 -0.0293074 0.00449538 
347 1 19.8767 4.85817 7.35006 0.00900622 -0.02315 0.00240819 
344 1 20.0551 3.57922 7.77081 0.00362599 -0.0081344 -0.0111285 
340 1 22.2661 1.30677 9.56207 -0.00342426 0.0142024 0.00602557 
331 1 24.8123 4.12129 11.6514 0.00123227 0.010432 0.0134136 
341 1 26.0081 6.09809 11.4597 0.00456001 0.0117501 0.0217026 
339 1 24.3094 1.66668 10.9222 -6.93265e-05 -0.00710401 -0.0214814 
358 2 21.0215 8.74387 8.86753 0.0527689 -0.0180576 -0.0294018 
346 1 21.7525 8.20773 8.20641 -0.0211903 -0.00833526 0.00980885 
360 2 20.3093 7.67 7.16766 0.00592754 -0.0633878 -0.0887321 
329 1 23.0995 6.33571 9.25325 0.0111693 -0.0235188 -0.00359607 
335 1 23.0469 7.70902 8.71892 0.00643014 -0.0083882 0.0347443 
359 2 18.9759 4.96772 6.71255 0.0122243 -0.0619459 -0.0113962 
348 1 20.7058 7.09868 7.84383 -0.00216367 -0.0112527 -0.0123165 
336 1 20.6065 5.89072 8.21409 0.0139072 0.0162658 -0.00246584 
354 2 26.3204 8.61498 9.4549 0.080014 0.0169596 0.00176088 
216 2 23.9383 9.7673 8.68224 -0.0658741 -0.00971653 0.0254845 
327 1 24.1944 5.82609 9.99585 0.0102201 -0.00744641 0.0201593 
333 1 25.3528 6.73553 10.3193 -0.0249246 0.0288732 -0.00550726 
445 1 21.9232 -5.94188 -11.948 -1.16886e-05 0.0221843 -0.0287292 
345 1 24.2559 8.70009 8.92782 -0.0142509 0.00737329 0.0410783 
353 2 26.8733 7.01605 11.5141 0.00977727 -0.00592777 0.0469711 
337 1 24.7602 2.60198 11.9773 0.00639183 -0.0185065 -0.00778819 
451 1 23.6069 -1.58991 34.6921 -0.0117745 -0.0119652 0.0180367 
457 2 22.7819 -5.22225 34.0024 -0.0387444 -0.0480503 0.0893102 
98 2 22.7631 5.44912 17.9165 -0.0262013 0.050006 0.0224502 
349 2 25.0831 2.03685 12.9321 -0.0334864 0.0387894 0.0453351 
338 1 25.7819 4.93675 12.2287 0.00603757 0.00908958 0.0113749 
440 1 22.607 -3.52852 35.2467 0.0243586 -0.00364372 -0.0122921 
352 2 33.8325 4.99091 12.8411 -0.100256 0.0537484 -0.0831223 
574 2 34.094 5.52843 12.1631 0.110664 -0.105975 -0.0881718 
447 1 22.193 -4.92392 35.0213 0.0106303 -0.00757308 -0.00393191 
463 2 24.2174 -1.05846 34.0107 -0.0373575 -0.0382919 -0.054711 
350 2 26.5665 4.6804 12.9786 -0.00830911 -0.0675639 -0.00364635 
460 2 24.143 -3.4241 33.4414 -0.0185496 0.0777504 0.00708386 
448 1 23.5737 -2.85864 34.2481 -0.00395961 0.00795843 0.00106672 
442 1 22.9002 -0.468108 35.4782 -0.00931103 -0.00802077 -0.0223171 
135 2 36.0119 -9.98522 29.5427 0.00627172 0.0901552 -0.0670455 
282 2 35.5191 -9.96062 28.7358 0.0213463 0.125954 -0.107973 
571 2 12.0937 29.9853 -10.1491 -0.00927072 0.0523447 0.0518317 
568 2 12.6531 27.8399 -12.159 -0.0219913 -0.0548963 -0.0495755 
464 2 25.6423 13.2249 -7.244 0.00633161 0.0992432 -0.0414259 
64 2 26.6783 13.2506 -7.70952 -0.0131076 0.0935561 0.0359253 
133 2 30.8617 20.6699 -12.0847 0.0238378 -0.0581068 -0.0454895 
176 2 24.2317 16.4518 16.3928 -0.00752095 -0.00555524 -0.0797016 
248 2 23.7982 17.0592 16.7864 0.0365153 -0.0443494 0.0891799 
539 2 35.2704 15.5229 23.939 -0.0584189 -0.0656753 0.0236636 
466 2 28.9703 21.7807 19.9511 -0.085445 0.0197312 -0.0131642 
105 2 29.2137 21.6274 20.8689 0.047807 0.023148 0.0292184 
179 2 35.287 16.4216 23.6976 0.0977152 -0.0576682 0.0345675 
211 2 25.2513 15.8197 32.3537 -0.109741 0.0156432 0.00360244 
207 2 25.5267 20.6526 30.3835 0.0567676 -0.0394891 0.057813 
195 1 26.2395 20.272 30.8371 -0.0330055 -0.0129087 0.0105982 
208 2 28.0648 20.0963 29.9207 0.0247056 -0.00626125 0.0543879 
199 1 25.3326 16.4574 31.4789 0.00534515 -0.0062032 -0.0263076 
215 2 27.5494 14.2829 31.188 -0.0730896 0.0636529 -0.0176458 
190 1 26.8587 16.3891 31.4093 -0.00219924 -0.0122361 0.00199596 
200 1 27.8453 15.2337 31.6246 0.0136782 -0.00812191 0.0182166 
212 2 29.6402 13.7637 31.8371 -0.0590444 -0.0556662 0.014358 
192 1 30.1429 14.7861 31.6239 -0.00346049 -0.0110222 0.0100167 
203 1 29.1212 15.763 32.0661 0.0175471 -0.00492645 0.0109172 
186 1 28.8648 16.8375 32.6642 0.00494293 -0.0101481 0.00785066 
185 1 29.4886 17.6336 33.7428 -0.0101394 -0.0166883 -0.0145001 
184 1 27.7276 17.4141 31.8973 -0.0104239 0.00951366 0.0282446 
213 2 30.3656 16.6433 35.3802 -0.0226654 -0.0289582 0.0789375 
202 1 31.5017 14.9196 32.0212 0.0219768 0.0193563 -0.000666117 
191 1 30.085 17.6785 35.002 0.0201577 0.0021428 0.0201015 
204 1 32.7455 15.2679 32.0448 0.0127122 0.00966152 0.00609936 
198 1 30.8472 19.8802 35.186 0.011251 -0.00213727 0.011175 
209 2 31.5514 22.0548 33.4527 -0.00701612 -0.0683819 0.0119032 
188 1 26.1174 18.9546 31.2158 0.00153489 -0.0129674 -0.0210972 
196 1 25.004 17.7879 31.1843 0.00721758 0.00263429 0.0118673 
197 1 30.4756 21.6371 33.2512 0.00674572 -0.0125981 -0.0154604 
187 1 28.6302 20.8808 31.6761 0.0139928 -0.0123534 0.0100682 
193 1 27.6241 20.993 30.5078 -0.0213086 0.0143806 -0.00171446 
205 2 27.6486 21.9768 29.6478 -0.00522344 0.0402483 0.124013 
189 1 30.2586 20.0349 33.755 0.0209358 0.021054 -0.000410215 
194 1 29.7642 21.8124 31.97 0.0154467 0.00969551 0.0180466 
182 1 27.5178 18.6362 31.6981 -0.0186146 -0.00170487 0.00373205 
181 1 28.5903 19.5304 32.0592 -0.0322929 0.00595626 -0.0356293 
206 2 30.0169 22.6257 31.3114 -0.0817386 0.0209974 -0.0607373 
201 1 31.2612 18.5132 34.9244 0.0249873 0.00400328 -0.00561947 
183 1 29.6828 19.119 33.1933 0.00766009 -0.00306972 -0.00964284 
556 1 12.1864 28.8656 35.8324 0.000191772 0.0328884 0.000815656 
214 2 32.1863 17.9665 34.7242 0.0753347 0.141383 -0.0338591 
139 2 55.579 5.53974 9.76426 0.00763057 -0.0298605 -0.0237144 
27 2 50.8562 5.96427 11.29 -0.0639314 -0.0842854 0.0929278 
397 1 58.4401 9.53539 -11.4808 0.0177274 0.0122948 -0.00294426 
403 1 57.6426 10.911 -11.4266 0.00612669 -0.0158365 -0.0209066 
409 1 59.1733 8.81507 -10.3649 0.0105383 0.00783562 0.0110472 
423 2 59.8927 9.37548 -9.97662 0.0399369 0.0125155 -0.0464628 
411 1 59.7438 7.58765 -10.7125 0.00708256 -0.00362458 -0.0390257 
123 1 54.0553 4.26877 9.05069 -0.0325373 0.00139404 0.00885587 
138 2 49.7701 1.6869 5.11937 -0.0579891 0.0684826 -0.127998 
137 2 51.8562 2.85681 5.16046 -0.00284625 0.0195361 -0.0422456 
36 2 43.1332 -0.69769 10.3803 -0.0425128 -0.0663503 0.127087 
24 1 43.7091 0.244899 10.668 -0.00264666 -0.00274903 -0.0246351 
34 2 42.3514 1.40184 9.10662 -0.0430278 0.0472995 -0.0404001 
22 1 43.4686 0.977853 9.40608 0.0137423 0.0149434 0.0296421 
12 1 44.8404 0.120924 11.6315 0.0103258 0.0163022 0.0132494 
141 2 48.8869 -0.102362 5.97422 -0.074316 0.032077 0.0507558 
142 2 49.4501 -1.87327 10.825 -0.0288062 0.0256776 -0.0656077 
132 1 50.4997 -1.53296 10.2896 0.00950359 0.00312751 0.0248167 
130 1 50.1712 -1.01245 9.0809 0.0105799 0.0244529 -0.000683833 
120 1 51.437 -0.545894 10.9593 -0.0290473 -0.029588 0.0265317 
30 2 44.6584 1.16692 6.77597 -0.0119189 -0.0451716 -0.0208568 
6 1 46.0853 0.701143 11.2555 0.00273643 -0.00606941 -0.00226663 
11 1 44.6852 0.965626 8.92879 0.0214485 0.0158256 0.011268 
5 1 45.985 0.81578 9.78192 0.00602743 0.0171208 0.0152295 
21 1 45.1517 1.50467 7.58915 -0.0198148 -0.00652803 -0.0108069 
18 1 46.4179 2.21171 8.06759 -0.0124735 0.0378707 0.00208166 
9 1 46.8039 2.01462 9.47412 -0.0107341 0.0102006 0.0102121 
134 2 53.8011 4.54405 6.05915 -0.0352305 -0.0059171 0.0679943 
116 1 53.2023 4.00404 11.0429 0.00476753 0.00132442 -0.00688039 
26 2 47.3283 2.52676 7.36028 -0.0999035 0.0357067 -0.0316052 
3 1 47.4437 3.0292 10.3468 -0.0327597 0.00189656 -0.00738624 
2 1 48.2134 2.371 11.419 -0.0224357 0.00314606 0.027466 
117 1 51.1783 2.11818 6.76768 -0.0131011 0.0128115 0.016852 
110 1 52.2556 2.97024 10.2616 -0.0165392 0.00985723 -0.0185378 
112 1 52.4604 1.94422 11.0405 -0.0129599 0.0313925 -0.00615329 
119 1 50.063 0.396194 8.31993 -0.0118249 -0.00448818 0.00778995 
129 1 49.3612 0.41694 6.8513 0.0220105 -0.0160031 -0.010749 
114 1 51.7314 0.71307 10.3699 -0.00976396 -0.0105171 0.000801749 
113 1 51.0507 1.18718 9.08788 -0.0187805 -0.0125861 0.00473568 
126 1 49.982 1.47363 6.20198 -0.0236864 0.0201267 -0.00192673 
115 1 52.7533 4.18348 8.18242 -0.0126968 -0.0129568 -0.00647643 
111 1 51.5504 2.22824 8.12621 -0.0145809 -0.0162989 -0.0309113 
125 1 52.0306 2.97988 6.15652 -0.0234558 0.00229258 -0.0154397 
109 1 51.706 3.37913 8.9739 -0.0468794 0.0106847 0.0231809 
4 1 47.3962 1.10065 11.7305 -0.000206591 0.0376356 -0.0102482 
121 1 54.8097 5.44755 9.0797 -0.00027719 0.00745876 -0.00991946 
496 2 54.7456 3.27842 9.45632 -0.0291578 -0.0728376 -0.103885 
122 1 53.0201 3.95719 6.60403 0.00809176 0.0077378 -0.0293023 
532 2 38.4764 -2.82638 1.68301 0.0809605 -0.00714753 -0.05031 
427 2 59.6339 6.63686 -9.88421 0.0342296 0.0236202 0.0252812 
32 2 46.6693 -1.53408 13.8729 0.0089905 0.0315687 0.0156875 
35 2 43.7486 -1.13759 13.4942 0.00300378 0.0389297 -0.00615491 
23 1 44.5959 -0.599339 13.0723 0.00552738 0.00526395 -0.0140032 
140 2 51.9398 0.379089 13.9825 -0.0457575 0.0145137 0.0270158 
128 1 52.2764 0.44467 12.8784 0.00630605 -0.020975 0.00622007 
535 2 54.7266 11.0224 26.1898 0.0641974 0.0135451 -0.0763629 
425 2 57.7268 7.98578 34.6889 -0.0466479 0.0131145 -0.0444039 
19 1 48.2971 1.10404 13.69 0.00262044 -0.0219418 0.0351425 
20 1 46.064 -0.669033 13.4174 0.0218222 -0.00273308 0.0128582 
10 1 47.2114 0.240032 12.9537 -0.0187111 0.00148743 -0.00271032 
31 2 49.1714 0.732183 14.3365 0.0417805 0.00176417 -0.0449859 
497 2 46.295 11.6818 31.9319 0.0408841 0.0157893 -0.000804589 
13 1 51.2141 5.77288 14.9359 -0.00133989 0.0178328 0.0246986 
28 2 49.0402 3.22749 14.6414 0.00465944 -0.0189211 0.00712853 
16 1 48.6683 2.54066 13.6865 -0.00166464 -0.0301163 -0.0206075 
15 1 50.8184 5.9514 13.7823 0.0206519 -0.0105246 -0.00884608 
118 1 52.844 1.95671 12.5402 -0.00717664 -0.0047098 0.00621662 
8 1 50.7435 5.46701 12.2836 0.0175348 0.000425461 0.0112399 
127 1 53.1843 3.19162 13.2428 -0.00929451 0.00189257 0.00758095 
124 1 53.6061 4.40828 12.3116 0.013826 -0.00437348 -0.0366899 
25 2 51.588 5.58775 15.9185 -0.103313 -0.00793813 -0.0163383 
394 2 44.2879 -5.84988 18.9682 0.106229 0.00329653 -0.114461 
144 2 44.1813 -6.43287 18.6602 -0.0387171 0.0152282 0.108085 
432 2 45.3148 7.87867 24.7501 -0.038916 0.0433011 0.0252632 
533 2 54.6163 4.69613 23.537 -0.0097003 -0.0450651 0.0237961 
530 2 56.2902 6.29236 22.3935 -0.036319 0.0289339 -0.0276444 
521 1 56.3012 6.23292 23.6415 0.0394405 -0.00424979 0.0157329 
534 2 53.8142 3.62456 25.7068 -0.0130237 0.00711466 -0.00198246 
525 1 53.7571 4.56693 25.6748 0.0155409 -0.0114442 0.0166783 
538 2 50.6391 4.65694 26.623 0.0886961 0.0545309 -0.0616708 
515 1 53.0378 5.13447 26.7262 0.0216831 0.017332 0.00574647 
526 1 51.6086 5.42525 27.0007 0.0102182 -0.0268363 0.00629302 
513 1 55.076 5.51086 24.1403 0.00534429 0.0173521 -0.0281385 
522 1 54.7419 5.6706 25.4459 0.0216386 -0.0124549 -0.0222657 
507 1 54.6994 6.45894 26.5867 -0.0151974 0.0226195 0.0113179 
508 1 54.2857 8.60391 28.4012 -0.00290751 0.000221096 0.0331586 
509 1 53.6789 6.44068 27.3561 -0.00557135 -0.0106795 0.0013858 
536 2 50.1426 9.1003 28.1426 -0.0246407 -0.0156617 0.00198649 
527 1 51.2811 9.14412 28.211 0.00925078 0.000706568 0.0202098 
514 1 53.6536 9.95027 28.5335 -0.00709262 0.00631792 -0.000740988 
510 1 53.4175 7.45321 28.3408 -0.00657197 -0.00809164 0.0182383 
524 1 52.135 9.9373 28.6857 -0.00238004 0.0146461 -0.00627823 
516 1 52.1042 7.87639 27.9344 0.0014884 -0.00982745 -0.00180119 
528 1 51.2473 6.70689 27.5786 -0.0014857 0.016486 0.00507969 
518 1 56.8263 6.98526 24.4827 -0.00746765 0.00227605 0.0095489 
505 1 55.9542 7.30448 26.774 0.0147184 -0.00266223 0.0209245 
511 1 57.0062 7.48643 25.7379 -0.00238711 0.0219983 -0.00184729 
506 1 55.4872 8.52423 27.4841 0.0113427 0.00313449 -0.00258293 
523 1 54.2322 11.2194 27.9726 0.00849793 0.0131488 0.00307482 
519 1 57.3928 9.84599 26.3703 0.00571267 0.00546786 -0.0206548 
529 2 59.0714 8.43333 25.5199 -0.072532 -0.0361594 0.0418989 
531 2 58.0215 11.0114 26.2384 0.0545191 0.0269083 -0.0360809 
517 1 57.9852 8.5886 25.935 -0.0135435 -0.0172886 -0.0110522 
520 1 55.3155 10.8883 27.0353 -0.00904614 -0.00613605 -0.00908646 
512 1 56.1066 9.70002 27.0038 0.0203634 0.0240741 -0.0125748 
17 1 58.431 8.65453 35.2569 -0.00315736 -0.0122245 0.00897389 
419 1 59.9908 4.89364 32.2625 0.00798424 0.00109392 -0.00738282 
1 1 49.261 2.947 12.5517 -0.00193661 0.00818244 0.0231835 
398 1 59.906 8.44386 34.9728 0.00591325 0.024521 -0.0351416 
131 1 51.9683 -0.925185 12.3379 -0.018965 -0.00830913 0.0114302 
7 1 49.9232 4.21854 12.4003 -0.0252676 0.0122216 -0.0370462 
431 2 59.0029 4.52854 32.3763 -0.00874406 -0.0318338 -0.0383601 
143 2 52.2743 -1.82627 12.7639 0.0598944 -0.00161453 0.115095 
14 1 56.07 14.0603 -10.9006 -0.00533304 0.00158606 0.0142611 
422 2 55.9177 15.2724 -10.752 0.0331255 -0.050487 0.0177977 
410 1 56.4211 12.9559 -11.2309 0.0157063 0.00202754 -0.020042 
413 1 57.5196 12.0883 -11.8857 -0.0240358 -0.00580336 0.0149697 
40 1 46.046 23.1478 17.9316 0.00569399 0.00835994 0.0181516 
59 1 47.7048 24.1097 15.9414 0.0190085 0.0182448 -0.0200794 
52 1 44.0041 23.4866 16.211 -0.00527264 -0.0265718 -0.030918 
46 1 46.3607 23.7104 16.4966 0.0262348 -0.0259997 0.0383066 
51 1 43.1031 22.6529 16.8497 0.00232639 0.00255344 0.00498033 
63 2 42.1715 23.0913 16.7311 -0.0135366 0.115191 -0.0529397 
48 1 48.503 23.0954 17.9025 0.0360498 -0.00260787 -0.0146427 
56 1 48.7151 23.5255 16.4989 -0.0109886 0.011704 -0.0107228 
70 2 50.379 22.0125 17.7298 -0.0205517 -0.0113972 -0.0632739 
72 2 49.6317 23.8186 15.7286 -0.104696 0.0243433 0.00727005 
55 1 45.2528 24.0409 15.6953 -0.0127078 -0.00492748 0.013603 
67 2 45.4504 24.8731 15.0214 0.0429215 -0.0231817 0.124247 
68 2 47.5107 24.4995 14.8896 0.030216 0.0195599 0.00113404 
42 1 47.2209 22.9415 18.4477 0.0279907 -0.00469367 0.0306994 
44 1 43.8709 22.3975 18.0059 0.00124074 -0.0162149 -0.0118546 
61 2 43.0724 23.1942 22.4331 -0.0762388 0.0354342 -0.0143656 
38 1 45.2397 22.4101 18.484 -0.0189054 0.000446781 -0.0127851 
49 1 43.01 21.9945 19.2856 -0.0107527 0.00654667 0.0351136 
41 1 47.4719 22.8103 19.8362 -0.0120395 0.00846708 0.00973921 
43 1 43.9802 21.9841 20.3203 -0.0309328 0.00129268 -0.0167964 
37 1 45.3154 22.0434 19.775 -0.00817257 -0.014533 0.00328805 
62 2 43.6337 20.3251 21.6072 -0.0114105 0.0160924 0.0191604 
39 1 46.391 22.089 20.565 -0.0463611 0.00968317 0.0035014 
53 1 43.5713 21.0945 22.2973 -0.0026991 -0.00275604 0.00504658 
50 1 43.692 22.4312 21.8415 0.00283852 -0.00111761 0.018735 
45 1 46.8446 21.7563 21.7523 0.0191438 0.000156717 -0.000233311 
65 2 46.7826 21.4767 22.5918 0.0215589 -0.0400805 -0.00430876 
60 1 49.5924 22.2793 18.3934 0.0149688 9.95976e-06 0.00322647 
57 1 48.3215 21.9845 21.8123 -0.00322006 0.0110521 -0.00433651 
47 1 48.6059 22.2751 23.2113 0.0213386 -0.0107501 0.0163167 
66 2 49.5802 22.7427 23.4523 -0.0546763 0.093802 0.00960687 
69 2 50.8418 21.3191 20.0862 -0.0536708 0.0405873 -0.101622 
54 1 49.8307 21.7378 19.668 -0.00116736 0.00375748 0.00305357 
58 1 48.6089 22.308 20.32 -0.00365561 -0.0125769 -0.0263777 
29 2 58.4922 12.2807 35.6861 0.0842947 -0.015725 -0.0860878 
404 1 60.3416 7.44849 -12.0373 0.0143619 -0.00703271 -0.0162822 
501 2 73.1687 -10.6148 11.0707 -0.0982731 -0.0146938 -0.0103733 
488 1 73.2698 -11.3576 11.9451 0.00552175 0.00747467 0.014284 
99 2 76.4653 -7.62958 14.7331 -0.00123677 0.0332868 -0.0135512 
80 1 78.0484 -9.66254 17.3162 0.0196072 0.00485419 0.0214984 
87 1 77.4484 -8.96104 16.5177 0.0230844 0.0179691 0.011797 
85 1 76.8056 -8.59809 15.421 -0.0148388 -0.0286252 -0.0478186 
475 1 76.6992 -9.7579 14.7173 0.0226851 -0.00261731 -0.0117801 
482 1 76.5334 -9.63305 13.0769 0.0399597 0.0200864 0.0102533 
494 2 76.984 -10.7149 15.0916 0.013952 -0.0307017 0.164232 
477 1 74.314 -11.3185 12.8177 -0.00483964 0.0171542 0.00922911 
485 1 75.829 -10.9097 12.8309 -0.0200245 0.0042548 -0.01346 
412 1 61.1413 6.44874 35.3307 0.0234239 0.00783158 0.0172053 
418 1 68.2912 11.5258 29.6491 0.00242296 -0.00539521 -0.00718792 
100 2 78.8144 -9.97429 18.1229 -0.108183 0.0177825 0.007125 
399 1 62.892 10.8404 29.8044 -0.0190763 -0.0177065 0.00567447 
429 2 65.4896 9.24025 27.7072 -0.076885 0.0233198 0.00682219 
417 1 65.2297 10.0156 28.5011 0.00168697 0.0219312 0.00761021 
250 2 65.5959 12.0215 27.7147 -0.00952296 0.0416661 0.00355237 
414 1 65.86 11.3074 28.4515 0.00372084 0.0235246 0.011366 
405 1 67.2185 11.4522 28.9183 -0.0198619 0.0149303 -0.0291302 
402 1 61.7168 9.06406 31.4669 0.00325833 0.00368724 -0.0273819 
407 1 64.1447 10.287 29.1907 -0.00928465 0.0131783 0.00594972 
401 1 62.0282 10.4057 30.9221 0.0107389 0.0147597 -0.0118787 
400 1 61.2526 8.42717 32.6149 0.00478527 0.0259958 -0.00822823 
426 2 61.2372 7.45835 32.1727 0.0691049 -0.0862758 -0.0479643 
415 1 60.8863 8.00994 33.9017 0.0109393 -0.0140175 0.00190079 
406 1 60.9894 6.51184 34.0805 -0.00948306 -0.00829776 0.0196952 
424 2 61.1485 5.33718 35.6417 0.000440121 0.0317465 0.0131905 
500 2 70.9073 -11.6796 12.7802 -0.0108912 0.0346806 -0.00155419 
416 1 60.5849 5.71215 33.0885 0.0168297 -0.00969546 0.000495293 
498 2 76.6448 -11.3863 12.2637 -0.019596 0.00554013 -0.0168569 
108 2 77.5346 -9.31393 12.8101 0.0768094 0.0670701 0.098971 
428 2 60.5848 4.59922 31.5105 0.0515778 -0.0644062 0.0806423 
408 1 68.6015 11.7905 30.9361 0.00500407 -0.0215077 0.0194588 
387 2 77.0527 22.2176 4.44462 0.00888594 0.0922661 0.015255 
374 1 75.2492 23.9314 5.74978 -0.0246547 -0.000121573 0.0081916 
373 1 77.2548 22.2613 5.60559 -0.0129029 0.0293738 0.00852477 
367 1 76.3731 23.3066 6.59363 -0.0228027 0.00904886 -0.00961526 
361 1 76.8366 23.4118 7.88974 -0.00220785 0.00394409 0.0160664 
363 1 76.2932 24.4036 8.76196 -0.0146007 0.00828936 -0.015703 
365 1 76.8829 25.1692 9.92914 0.00113391 0.0140108 -0.0168266 
388 2 78.6701 20.7877 5.37337 0.0345862 -0.0373174 -0.0363444 
375 1 78.2282 21.4092 6.24274 0.0196396 0.0316066 -0.00700099 
368 1 78.7208 21.7418 7.46914 0.00116273 0.00307437 0.00405334 
362 1 78.0741 22.7756 8.3842 -0.00245212 0.0016721 0.0140458 
376 1 80.1615 21.1566 7.70511 -0.00467668 -0.0109484 0.00732255 
379 1 80.8066 21.5269 8.94814 -0.00835897 -0.0144504 -0.00305284 
364 1 78.4682 23.2002 9.71939 -0.00881802 0.00928405 0.0159519 
370 1 79.6852 22.2844 9.87794 0.0140087 0.00905653 -0.0211643 
380 1 80.132 22.8993 11.0977 -0.004965 0.00283462 -3.13178e-05 
391 2 82.0397 21.3942 9.40171 -0.0823722 -0.0902451 0.0499821 
395 2 81.2195 22.1524 11.2432 -0.0148101 -0.0629913 0.0260328 
366 1 77.8516 24.3253 10.3937 0.0184019 0.00811034 0.0114323 
278 2 71.9045 34.6448 -1.2068 -0.113602 -0.0270936 -0.0210293 
486 1 69.7767 28.9309 9.94102 0.0136054 -0.0115609 0.0060956 
502 2 69.6873 28.79 8.81427 -0.0320987 0.108895 0.0682515 
389 2 73.895 25.659 6.26018 0.153192 -0.00378797 -0.0504071 
377 1 74.6925 25.0172 6.57325 -0.00820207 -0.0265653 0.00249527 
386 2 75.5216 25.7575 6.27471 -0.00154297 -0.0186845 -0.0513647 
369 1 75.0895 24.9165 8.26343 -0.0065465 0.00052771 0.00905805 
378 1 74.2787 25.2705 9.3961 0.00994238 -0.0185404 -0.015904 
495 2 73.3694 26.1934 9.45637 -0.0233106 0.0045651 -0.143566 
371 1 75.9235 25.6564 10.97 0.000302356 -0.0119276 0.0177508 
381 1 74.6335 25.6366 10.7824 0.0163471 -0.0076649 -7.21955e-05 
393 2 73.9394 26.163 11.4092 0.00347935 0.0733917 0.0905078 
280 2 80.393 30.7923 9.80794 -0.0735395 -0.016382 -0.00874683 
372 1 78.5014 24.9014 11.6486 0.0243458 -0.0163262 -0.028009 
489 1 69.6564 29.746 10.7731 0.0109282 -0.021402 -0.0191805 
258 1 83.8956 32.8212 8.12546 -0.00173079 -0.0313371 0.0173177 
253 1 83.0777 34.5905 10.2947 0.00822641 0.0102799 -0.0266228 
492 1 69.9115 30.2963 12.0084 0.00227786 -0.010577 0.00344213 
275 1 83.0025 30.9409 6.5091 -0.0295746 0.00324745 -0.0156864 
254 1 82.3754 33.6521 9.81461 2.65588e-05 0.00753922 -0.0101735 
272 1 81.7272 30.8026 7.07584 -0.037567 -0.0106352 -0.0110507 
283 2 72.3283 34.1251 -0.83491 -0.0443691 -0.0316627 -0.038405 