ITEM: TIMESTEP
720000
ITEM: NUMBER OF ATOMS
576
ITEM: BOX BOUNDS pp pp pp
-1.2000000000000000e+01 8.4000000000000000e+01
-1.2000000000000000e+01 3.6000000000000000e+01
-1.2000000000000000e+01 3.6000000000000000e+01
ITEM: ATOMS id type x y z vx vy vz 
136 2 -2.27039 10.5413 11.2539 0.0575875 0.01156 0.00768064 
144 2 -9.02904 10.6365 3.89202 -0.0204278 -0.0751952 -0.0604152 
394 2 -8.85536 11.5894 4.13645 -0.0031343 0.124143 0.0767101 
430 2 -0.97678 10.9583 9.67024 -0.0699599 0.00464586 -0.0408142 
420 1 -1.75727 10.9694 10.2715 -0.00696043 -0.00718836 -0.000402696 
567 2 11.6177 -7.58942 1.74827 0.0307961 -0.0232831 -0.0401165 
565 2 11.89 -9.51671 1.09256 0.0623191 -0.00358671 0.0391384 
281 2 9.31033 15.1239 -2.87234 0.0275655 -0.0619862 -0.0200632 
269 1 9.34041 16.0456 -3.54086 -0.01539 -0.0106475 -0.0123136 
270 1 6.93096 16.4342 -4.38292 -0.0122698 0.0386514 0.0140941 
285 2 7.15786 15.304 -4.28229 0.0216264 -0.0541824 -0.00510301 
261 1 8.47894 16.7626 -4.31987 0.019289 0.0135129 0.0223144 
273 1 5.87195 17.1094 -3.73961 -0.0137913 0.0260101 0.00550641 
255 1 8.59987 18.2422 -4.34498 -0.00317127 -0.0131933 0.00631863 
259 1 11.2154 18.0719 -3.9755 0.0171497 -0.0299722 0.00273627 
266 1 10.5744 16.7428 -3.82146 -0.00644616 -0.00714499 0.006293 
286 2 3.94105 18.9203 -3.49922 -0.0384165 0.0240891 0.0523826 
274 1 4.87278 19.3905 -3.37111 0.00605494 -0.011299 0.0129615 
288 2 4.26415 21.5031 -3.8198 0.00673091 0.0439431 0.0332734 
276 1 5.03747 20.7908 -3.32045 0.0152037 -0.00115837 0.000862707 
263 1 6.15739 18.6432 -3.52343 0.0250184 -0.00304706 -0.0146372 
257 1 7.3814 19.1823 -3.98982 -0.0127801 0.0282734 -0.000577668 
260 1 11.2698 21.0027 -4.80002 -0.00913191 -0.00334874 -0.0256538 
275 1 6.8582 22.865 -2.83948 0.00151675 0.00373018 -0.0352896 
264 1 6.38026 21.4521 -3.48633 -0.0155864 0.0160266 -0.00727645 
258 1 7.45875 20.6832 -4.0594 0.00232438 0.0168876 -0.0139516 
256 1 8.87741 20.9758 -4.47573 -0.0225126 -0.0135576 -0.0126385 
272 1 8.01818 23.3309 -3.57753 -0.00134805 0.015185 -0.0146434 
262 1 9.09994 22.5335 -4.13624 -0.00973726 -0.000186354 0.0112389 
254 1 9.97976 20.2372 -3.97179 -0.0103106 -0.029871 0.00634191 
271 1 10.2479 22.8503 -4.60564 -0.00197177 0.0219037 0.00618116 
268 1 11.3577 22.5048 -5.08017 -0.00772628 -0.00187872 -0.00333335 
253 1 9.78025 18.8069 -3.99894 0.0128251 0.0350639 0.0099983 
287 2 8.82095 24.2462 -3.80072 0.00759832 0.0387759 0.0615065 
408 1 -2.79512 13.213 9.41967 -0.00544421 -0.0322998 0.0281472 
405 1 -3.35425 15.9113 10.385 0.0253918 -0.0140717 0.0331205 
414 1 -3.03472 14.4976 10.1144 -0.00395481 -0.0207368 -0.00684045 
426 2 -3.65571 16.1177 9.41726 0.00986349 0.0430872 -0.0159626 
432 2 -3.43519 13.9205 8.41164 -0.0854119 -0.00822702 0.0369397 
418 1 -2.33413 12.0389 9.90966 -0.0171342 -0.0328068 0.00471742 
352 2 8.2233 31.1652 -11.346 0.0326008 -0.0851294 0.01205 
399 1 -3.28309 16.136 11.7776 0.00590201 0.0116987 -0.0109468 
280 2 11.6669 23.4615 -5.5379 0.0347717 -0.0204935 -0.0435245 
574 2 7.50568 30.7383 -11.4196 -0.0404452 0.00186269 0.0694259 
409 1 -6.96117 18.7921 17.4701 -0.0252104 0.0265588 -0.0134712 
423 2 -7.22043 17.6613 17.6133 0.0131468 0.0364693 0.0312016 
417 1 -1.88192 14.2236 13.0399 -0.00184872 0.010547 0.0204502 
36 2 -11.4948 22.2467 19.1693 -0.0273671 -0.031161 -0.0491412 
407 1 -2.55614 14.9986 12.6651 0.00336917 -0.0094575 -0.0149438 
401 1 -3.57209 17.1 12.8763 0.00461323 -0.00858702 -0.0262573 
351 2 11.7192 18.8968 15.4772 0.0112076 0.0315955 0.0110504 
404 1 -4.43356 18.7926 17.0999 0.0129365 0.0351054 -0.0262556 
411 1 -5.55428 19.3461 17.7931 0.0160262 0.00766661 -0.0137286 
402 1 -3.49759 17.5947 13.8838 0.0182625 -0.00331512 -0.0114288 
427 2 -5.5715 20.2803 17.982 0.0037872 0.115377 -0.0550045 
403 1 -7.06686 18.7227 16.0281 -0.0178897 0.0293009 -0.0153916 
410 1 -8.1045 18.6973 14.8911 -0.0119084 0.0146497 0.0105794 
29 2 -5.59241 21.7885 12.7044 0.0622024 0.102721 -0.0872391 
14 1 -5.46007 20.9683 13.5375 0.0127361 0.00585087 0.00994094 
422 2 -10.0091 18.7921 14.2171 0.0855555 -0.0545558 -0.0129225 
413 1 -8.95727 18.7494 13.7845 0.00209924 -0.00610275 -0.021571 
425 2 -8.76956 19.5319 13.1208 -0.0251532 0.014338 -0.0033882 
397 1 -5.94288 18.9994 15.203 -0.00268589 -0.0018594 -0.00268721 
398 1 -4.60481 18.5953 15.7396 0.00215337 -0.0185577 0.0174657 
17 1 -5.4971 20.0914 14.2201 -0.0312609 0.00213613 -0.0128157 
400 1 -3.47453 18.2854 15.1997 0.006382 -0.00886056 -0.0145133 
406 1 -0.881742 17.9953 16.5938 0.00842482 -0.0212135 0.00975598 
415 1 -2.16748 18.2523 16.2223 0.00764026 -0.00436499 -0.0127237 
412 1 -3.06003 18.5819 17.2065 -0.0119339 0.00511958 -0.00995189 
416 1 0.305088 17.4239 16.7046 -0.0293406 -0.028047 0.00636188 
419 1 1.33958 17.0368 17.19 0.0159013 -0.0328085 -0.0277989 
431 2 1.89209 17.8824 17.7439 0.00792032 -0.0122597 0.165924 
428 2 1.89589 16.2988 16.4505 0.0230856 -0.0429283 -0.0152681 
359 2 5.40554 24.1252 15.013 0.0112852 -0.0010868 0.0281272 
347 1 6.18671 23.4279 15.4971 0.0222598 -0.000306355 -0.0131744 
344 1 7.02115 23.0416 14.4756 0.00501895 0.0190876 0.0116165 
356 2 6.93231 23.3581 13.3528 0.0930883 0.0669516 0.0832766 
429 2 -1.14869 13.9656 13.8677 -0.0390887 -0.0359948 0.12352 
336 1 6.28635 23.0855 16.9322 -0.00609858 -0.0203317 -0.013444 
334 1 7.9893 21.8686 14.6674 0.0155701 -0.00165124 -0.016163 
326 1 9.51043 21.2795 16.4913 -0.0112103 0.00905467 0.00452948 
343 1 8.96822 21.229 13.7987 0.0091823 0.0103636 0.00389451 
328 1 8.36051 21.9618 16.0807 -0.00517472 0.025873 -0.00579338 
340 1 9.67344 20.0184 14.4185 0.0216006 -0.00352331 -0.0322145 
337 1 11.5101 19.5286 17.6114 -0.013978 0.00788302 0.0133735 
339 1 11.5467 19.7278 16.186 0.0162801 -0.0178509 0.0142946 
332 1 10.3993 20.528 15.6483 -0.0083711 0.00528681 -0.0167555 
330 1 7.52826 22.5032 17.3362 0.0131355 0.0393562 0.00602427 
360 2 4.35277 23.0385 18.1722 0.0393581 0.0250864 0.0444712 
348 1 5.41443 23.2099 18.122 -0.0124447 -0.021686 -0.00630248 
80 1 -1.49762 29.0841 17.2175 0.0287364 -0.00886167 0.0186803 
87 1 -1.09025 29.7841 18.5668 -0.0123531 -0.00439929 0.0125956 
85 1 -0.867862 30.6949 19.64 -0.00555513 -0.0194591 0.00995426 
99 2 -0.876232 30.7105 20.6732 -0.0551338 -0.00824073 -0.0988607 
424 2 -3.02449 19.1087 18.2674 -0.0397536 -0.0182924 -0.0249645 
354 2 8.13773 21.2955 22.224 -0.0678703 0.0122707 -0.00729092 
331 1 10.6871 20.2006 18.6696 0.0246792 -0.000542135 0.00653585 
329 1 7.91683 22.5912 18.671 -0.0135066 -0.0114967 0.00583666 
333 1 8.64213 21.1315 20.2473 0.0131274 -0.00583497 0.0223573 
327 1 8.77327 21.6134 19.0757 -0.00812014 -0.0175685 0.0204264 
325 1 9.69014 20.95 18.0933 -0.00203431 -0.00869961 0.00994116 
341 1 9.27895 19.9343 20.6555 0.0115837 -0.00974593 -0.0366825 
342 1 8.07163 21.6368 21.3543 -0.017909 0.0094773 -0.00429474 
345 1 7.72916 22.928 21.2414 -0.0166981 -0.0332875 -0.0255401 
335 1 7.189 23.1635 19.8668 -0.017178 0.00547021 0.0170509 
338 1 10.3397 19.3925 19.9122 0.000826282 -0.00220179 -0.00299112 
353 2 8.96486 19.6986 21.6472 -0.0695813 -0.0828468 -0.0365335 
350 2 10.7282 18.6177 20.2819 0.0535416 0.0124942 -0.0252348 
346 1 6.02988 23.8926 19.2785 -0.00218639 -0.00547538 -0.00468103 
216 2 7.34627 23.2053 22.235 -0.0772731 -0.0380624 0.04179 
358 2 6.0056 24.4576 20.1355 -0.036991 0.0194491 0.00230925 
100 2 -2.53839 28.9019 17.2786 0.0630584 0.0335901 0.0136858 
35 2 -11.8274 23.0504 21.8462 -0.100365 -0.0625195 -0.0356263 
250 2 11.3027 12.5432 34.1737 -0.088971 -0.0868258 0.0330776 
179 2 13.6563 -1.05473 -6.18208 -0.0546913 -0.00397017 0.0129252 
539 2 14.2883 -0.858573 -6.21378 -0.0353028 -0.00687877 0.0171941 
237 1 21.4881 0.133246 -9.28072 -0.00350386 0.0163959 -0.0122331 
249 2 21.8641 -0.227004 -10.2337 -0.129193 -0.0352236 -0.0214096 
221 1 22.6463 0.260015 -7.21641 0.0209327 0.0145168 -0.00108883 
227 1 22.4309 -0.228825 -8.40393 -0.022712 0.00358942 -0.00967741 
238 1 23.6558 -0.877795 -9.26251 0.00865877 0.0167323 0.0180561 
357 2 23.8474 -1.11853 -10.2956 -0.0605034 0.0216892 -0.0136446 
240 1 24.1262 -1.58396 -8.07257 -0.00101205 0.022998 -0.0277841 
252 2 24.1579 -2.63733 -8.7625 0.0240168 0.152218 0.0309077 
228 1 24.5666 -1.22362 -6.6304 -0.0142844 -0.00938889 0.0127802 
222 1 23.7635 -0.0201625 -6.31732 0.00254041 -0.00418805 0.00529935 
219 1 21.4603 0.280263 -6.54452 0.0261006 -0.0201531 0.0127364 
225 1 20.2415 0.533902 -7.38175 -0.0282031 0.000787078 0.00336595 
246 2 19.1967 0.450406 -9.31149 -0.0591137 0.00424596 -0.00543819 
234 1 20.0763 0.409431 -8.822 -0.0169726 0.0248837 0.0162828 
230 1 18.8866 0.962293 -5.36063 -0.00679209 -0.00400136 -0.00736343 
233 1 18.937 0.672014 -6.6926 -0.0066035 -0.00742445 0.0213887 
245 2 17.9638 0.829392 -7.09444 0.0259789 0.112594 0.0544617 
242 2 17.9874 0.775311 -4.72123 -0.0841997 0.113119 -0.0557558 
33 2 35.7824 6.22004 -2.93811 0.0150677 0.0403692 0.0768391 
556 1 13.3013 -6.09891 3.88607 0.00828778 -0.0190978 -0.0267615 
244 2 24.0463 1.98786 -1.3377 0.176851 0.00630887 -0.0907951 
232 1 23.9559 1.38524 -2.4111 0.0163076 0.00494063 -0.0230275 
220 1 23.7713 0.28141 -4.99089 0.0113872 -0.00389714 0.00883522 
243 2 21.7778 2.80303 -1.65741 0.000151692 0.14298 -0.0117789 
235 1 24.3722 0.0415787 -2.48633 -0.0114823 0.0171403 -0.031497 
247 2 24.9854 -0.356987 -1.72874 -0.00166171 0.0497326 -0.00454698 
226 1 24.3797 -0.342362 -3.88575 0.0126453 -0.00965561 0.0126566 
239 1 25.153 -1.472 -4.38904 -0.0123726 -0.0105546 0.0150013 
236 1 25.5029 -1.90943 -5.76079 0.010497 -0.00420183 -0.015527 
251 2 25.9384 -1.9014 -3.67272 -0.082546 -0.0480056 -0.0414743 
217 1 21.3745 0.638909 -5.16046 -0.0108046 -0.0127639 -0.0206283 
224 1 22.7705 1.45653 -3.24404 -0.0130391 -0.000410331 -0.000622495 
218 1 22.5917 0.700441 -4.56891 0.0072829 0.00966226 0.0189534 
223 1 20.0848 1.13876 -4.49884 -0.00912597 0.0244653 0.0297438 
229 1 20.4372 2.00918 -3.35336 -0.0169555 -0.00797131 -0.0163014 
241 2 19.9516 3.03249 -3.16106 -0.0210677 -0.0212697 -0.0638858 
231 1 21.5901 2.22116 -2.55959 0.00773812 0.0321846 0.0229358 
544 1 14.258 -8.30964 4.95393 -0.00341953 0.00714795 0.0172911 
542 1 13.9712 -8.40749 3.5398 0.0230409 0.0289805 0.0382669 
555 1 13.2173 -7.24547 2.94053 -0.020935 0.00446111 0.000863383 
548 1 12.4325 -7.90033 2.00632 -0.00662631 0.00322154 0.00766378 
541 1 15.0099 -8.84586 2.58935 -0.000902162 -0.0147505 0.00212514 
553 1 12.7277 -9.15854 1.62165 -0.00462714 -0.0332521 0.00318117 
547 1 14.0379 -9.41922 1.63603 -0.0122639 0.00947772 -0.00571966 
569 2 14.7076 -10.0157 1.26275 -0.0146886 0.0255942 -0.0310578 
543 1 16.1307 -9.31775 3.32567 0.0311982 0.00914426 0.0172734 
545 1 16.1905 -10.0412 4.52435 0.000182001 -0.00717686 -0.0172687 
549 1 17.5575 -8.98529 2.5636 -0.00560257 0.000952391 -0.0268073 
551 1 17.5487 -10.3468 5.17308 0.0189403 0.00893898 -0.0164267 
550 1 14.1334 -7.17725 5.84159 0.000736678 -0.0221823 -0.00847019 
546 1 15.294 -9.32664 5.59879 -0.0086771 -0.0199606 -0.0285827 
559 1 13.9639 -5.77575 5.10815 0.0221832 0.0126129 0.0259487 
554 1 17.3394 -8.44332 1.31168 -0.0111507 -0.000455802 -0.000722925 
563 1 14.8631 -5.79414 9.46276 0.00596807 -0.0142446 0.0258272 
571 2 14.2616 -4.82033 5.47627 0.0335647 0.0543573 0.0532918 
561 1 18.3655 -10.9172 4.0928 0.0247316 -0.00739473 -0.029722 
566 2 15.6474 -7.84894 0.0232789 0.0415711 0.0496093 -0.00901437 
558 1 18.5151 -10.0096 2.80466 0.00797303 0.0139535 -0.00483055 
557 1 16.6261 -8.09889 0.194941 -0.00979797 -0.00272723 0.00429101 
573 2 19.3002 -11.4302 4.29766 0.0374546 0.045824 -0.0615322 
570 2 19.1079 -10.4978 2.20011 0.0527913 -0.0530196 0.0135439 
421 2 18.3273 -10.5072 7.312 0.00236435 -0.0746473 -0.0649069 
564 1 16.3154 -9.36256 6.75745 -0.00578609 0.0101136 -0.00335185 
576 2 16.4305 -8.84986 7.73537 0.0454279 -0.0529462 -0.0236781 
562 1 17.5497 -10.0653 6.57969 -0.025138 -0.0170636 0.00459448 
572 2 14.7776 -6.09486 10.4867 -0.0268084 0.0731281 -0.000482016 
552 1 14.7696 -6.75769 8.40538 -0.0173916 0.0101188 0.0150693 
560 1 14.4389 -7.07596 7.1389 -0.0130028 0.000977266 0.00845825 
568 2 12.488 -5.29678 4.00685 -0.0692044 0.129565 -0.0827207 
267 1 12.2572 20.161 -5.13822 -0.0140775 -0.00681756 0.00438656 
265 1 12.4583 18.8058 -4.36979 -0.0126052 0.0134023 0.00784089 
277 2 13.0336 18.0468 -4.81155 -0.0903388 -0.0547288 -0.0393999 
279 2 12.7287 20.603 -6.06625 -0.00305322 -0.0168079 0.00208137 
349 2 11.946 18.655 17.9515 -0.0229068 0.0051343 -0.0480336 
126 1 22.8449 18.0232 28.8253 0.00443756 -0.0161785 0.0104921 
137 2 20.8145 17.5847 27.2988 -0.0690981 -0.0196764 0.111226 
134 2 19.7534 18.9065 25.8704 0.0778407 0.0534535 0.0124941 
496 2 19.8156 23.605 24.3796 -0.0179829 0.0183054 -0.11675 
129 1 24.1935 17.9056 29.5972 0.00509871 0.0091113 -0.0193441 
122 1 20.6414 19.4684 26.4196 -0.0251705 0.00203375 0.00162271 
125 1 21.1762 18.6065 27.2154 -0.0168949 0.0313025 0.0257724 
117 1 22.4676 19.0262 27.8626 -0.00713683 0.0228882 0.034408 
115 1 21.1673 20.9293 26.109 0.00302657 -0.00256716 -0.00545298 
121 1 20.1418 21.7272 25.6038 -0.0155381 0.0119481 -0.0144088 
111 1 22.8358 20.3577 27.8683 -0.0108395 -0.0135361 -0.0171553 
110 1 22.9274 22.4012 26.728 0.000430613 0.0219383 1.63021e-05 
109 1 22.4613 21.0563 26.6779 -0.0109805 0.00330991 0.0154005 
116 1 22.2818 22.999 25.5339 -0.0121589 0.00983835 0.0163643 
123 1 20.7154 23.0839 24.9588 -0.0261467 -0.0180303 0.00621111 
119 1 24.2102 19.4815 29.5272 0.0233932 0.0132609 -0.0114224 
114 1 24.3542 22.0236 28.724 -0.0150852 -0.00116402 -0.0188702 
113 1 23.9617 20.5801 28.7361 -0.00145593 -0.0132653 0.00196182 
118 1 24.0732 24.4063 27.629 -0.0378582 -0.00442598 0.00636441 
112 1 23.888 22.9771 27.6508 -0.0288456 -0.0254454 -0.0231062 
139 2 24.0507 25.8329 26.0188 -0.0790995 0.0522268 0.0267152 
120 1 25.2982 22.7883 29.4914 -0.00353689 0.00372973 0.0161981 
128 1 24.9289 25.0202 28.7215 0.00951486 -0.00429316 -0.0271005 
140 2 25.619 25.9338 28.7151 0.0406975 -0.0511713 -0.129132 
124 1 22.5992 24.1952 25.6395 -0.0225565 -0.0128931 -0.0131937 
127 1 23.3704 25.0108 26.4544 -0.0111094 0.0245814 0.0142619 
138 2 25.4019 17.5136 29.3558 -0.0254309 0.0324566 0.00893424 
131 1 25.8447 24.1362 29.534 -0.00491959 0.00995673 -0.00363984 
141 2 23.9767 17.4529 30.5798 0.031039 0.0738493 0.0605087 
143 2 26.814 24.2552 29.054 -0.041287 -0.0253594 -0.0293907 
130 1 25.5738 20.3732 30.1621 -0.00180949 -0.0248545 0.0309935 
142 2 25.945 19.2953 30.0569 0.0926986 0.0306933 0.0411739 
132 1 25.5027 21.7448 30.7165 -0.0161904 0.011232 -0.00641509 
575 2 41.4369 3.46068 -7.60641 0.0232563 -0.063095 -0.0189837 
68 2 60.0455 -11.4001 27.0681 0.0556652 -0.0080639 -0.015034 
177 2 46.9502 0.586821 35.4329 -0.0120425 0.0116664 -0.0249895 
282 2 50.8379 -4.41614 25.7951 0.00820503 0.050085 -0.121952 
248 2 53.3973 -6.27028 31.187 -0.0106821 0.0369164 0.0778105 
176 2 53.908 -6.83279 31.2689 -0.0358085 -0.0467352 0.0208875 
135 2 50.1848 -4.46118 26.5846 0.0457473 0.0320801 0.0470254 
210 2 59.2569 -4.03203 34.4932 -0.0343845 -0.0210181 -0.0181384 
284 2 59.0289 -4.20149 33.7873 0.160496 -0.0182671 0.0682547 
450 1 47.0024 29.0526 -10.8187 0.00555665 -0.0134964 0.0204428 
537 2 58.6765 18.2784 3.03961 -0.0682926 -0.0659557 -0.00788685 
462 2 47.2772 28.5685 -9.83866 0.0179945 0.0448621 -0.098068 
444 1 42.5254 31.1172 -8.64294 0.00418124 0.0120668 -0.00938489 
455 1 41.1214 30.8531 -8.07957 0.0177947 -0.0305245 -0.011263 
467 2 40.6812 29.8698 -8.35553 -0.0687765 -0.0273304 -0.0146093 
452 1 40.7281 31.7832 -7.05923 -0.00327927 -0.0217441 0.0267255 
468 2 42.9913 29.5733 -10.5017 0.0295388 0.0126669 0.00365002 
456 1 43.1683 30.2365 -9.57391 0.0143889 -0.0310743 -0.0134096 
454 1 44.3643 31.0379 -10.1809 0.0254449 -0.00312887 0.00802574 
438 1 43.6447 31.9248 -8.06756 -0.00159944 -0.00118632 0.00437679 
453 1 46.1807 29.8873 -11.1372 0.00623573 -0.003191 -0.00311091 
443 1 44.8563 30.4626 -11.4835 0.00745137 0.0188428 0.00311277 
441 1 47.1429 32.8283 -8.99662 -0.012213 0.0278336 -0.0080587 
437 1 44.4459 31.9239 -9.16899 0.0137442 -0.0242036 -0.0196418 
449 1 48.0667 33.7689 -8.32846 -0.0156755 -0.0217095 0.00692198 
435 1 45.6178 32.7783 -8.83874 -0.0326353 0.000763088 -0.00916814 
433 1 45.5282 33.3103 -7.53433 0.00462944 -0.0258595 -0.0228383 
446 1 47.7041 34.0433 -6.90371 0.0139532 0.00819739 0.0206136 
436 1 43.3913 32.5173 -6.90032 -0.00788515 0.0311948 -0.00573579 
439 1 46.8542 32.9584 -6.65985 0.00921865 -0.0245418 -0.0100456 
461 2 48.5573 34.64 -8.82636 0.0791177 0.0535685 0.00393926 
458 2 48.2289 34.933 -6.18308 4.05932e-05 0.0520686 0.0715135 
481 1 58.8575 23.5016 -3.13165 -0.00548485 -0.0212736 -0.0276804 
493 2 57.4261 21.6384 -2.69622 0.0960114 -0.0873413 0.0594247 
483 1 57.7406 22.7591 -2.81227 -0.0138266 0.0173992 0.0170902 
476 1 59.8565 22.6585 -3.97272 0.00366935 0.00750432 -0.0014864 
494 2 58.66 26.8331 0.271641 0.0551797 0.0463018 0.0141841 
482 1 59.0259 26.5138 -0.873862 0.00687356 -0.0288645 -0.00090865 
485 1 59.3696 27.3868 -1.92038 -0.00298937 -0.0372125 0.0169204 
477 1 59.6663 27.1876 -3.3156 0.0203349 0.0119001 0.00479171 
471 1 59.5796 25.7565 -3.2543 0.0039218 -0.00428461 0.000781345 
108 2 57.8195 24.6403 -0.427309 0.0610033 0.0168016 0.0479417 
475 1 58.4564 25.344 -1.23776 0.0241509 -0.0336737 -0.012909 
469 1 58.6777 24.8678 -2.6875 0.0165327 -0.00592246 0.0134208 
74 1 59.881 19.9658 6.54736 0.00345614 0.024542 -0.0212686 
442 1 42.0529 32.5536 -6.43339 -0.0164794 0.00791022 0.0196694 
463 2 40.8366 33.8583 -5.59034 0.0305769 0.0282003 -0.0332504 
451 1 42.0017 33.6503 -5.55285 -0.00560893 0.0130604 -0.0119995 
448 1 43.0054 34.3872 -4.89173 0.0157146 0.00257702 -0.00372376 
434 1 44.6107 33.1998 -6.49536 0.0205935 -0.00442422 -0.0217629 
445 1 46.8454 32.7311 -5.26263 -0.016606 0.00701707 -0.0122419 
440 1 44.4577 33.6155 -5.10814 0.00266411 -0.011803 -0.0294878 
457 2 47.7682 32.6348 -4.83291 -0.000294154 -0.0316814 -0.051263 
447 1 45.7055 33.5795 -4.57679 0.0191139 0.0152907 0.00680559 
459 2 45.6235 34.2459 -3.75617 0.0171502 -0.111426 0.00774026 
460 2 42.6944 35.112 -4.16102 -0.0341061 0.0225204 -0.0187167 
104 2 58.7403 22.1591 2.1792 -0.0461291 0.116518 -0.0847051 
107 2 56.095 22.9909 3.66582 -0.0104224 0.0197245 0.0593914 
82 1 59.1898 21.2414 4.31737 0.0376747 0.0108931 -0.0353531 
95 1 57.3135 22.7052 3.63772 -0.0247861 -0.0114663 0.0100192 
92 1 58.1598 21.5732 3.32099 0.0159488 -0.00968545 0.012354 
84 1 57.3854 22.7468 5.10646 0.0202881 -0.000810976 -0.0195343 
76 1 58.9868 20.7048 5.69205 -0.00952353 0.0198068 -0.0108012 
94 1 56.1445 23.4484 7.36394 -0.015365 -0.00194933 -0.0209329 
90 1 58.1624 22.4552 10.4962 -0.00346965 0.00647996 0.0178871 
75 1 59.4401 21.6877 8.27524 -0.0257797 -0.00389737 0.0211251 
77 1 58.2554 22.0518 7.54931 -0.00441052 0.0349169 -0.00476752 
78 1 57.9302 21.7079 6.12075 -0.026597 0.00734195 0.0213475 
96 1 56.0527 23.0449 6.0166 -0.02953 -0.00718089 0.00576358 
102 2 56.2689 23.7407 9.79216 0.00953277 0.0229543 0.00772135 
93 1 57.3772 23.2249 9.6048 0.0102128 -0.0124534 0.011571 
83 1 57.2818 22.9126 8.21711 0.000424203 -0.0176689 0.000640157 
106 2 55.4623 24.2124 7.59565 -0.0351132 -0.000864765 0.0711105 
81 1 59.3795 21.8016 9.72079 -0.018995 -0.028057 0.0246575 
540 2 58.7849 17.5229 3.35446 0.0168039 0.00465611 -0.00689643 
479 1 59.9789 25.2544 -4.55595 0.000882662 0.00634454 -0.00606354 
498 2 59.8442 28.2761 -1.64923 -0.051715 -0.0164541 0.00210647 
466 2 51.098 23.2264 17.7779 0.069171 -0.117793 -0.0375139 
105 2 50.8453 23.4237 16.7041 -0.147637 -0.0287648 0.0477519 
72 2 59.5863 33.9175 28.6182 0.0705475 0.00471042 -0.182384 
504 2 40.3148 12.3531 30.5997 -0.0203587 0.068551 0.0134163 
71 2 40.3386 12.7483 31.2991 -0.118889 0.000569431 -0.0505606 
465 2 44.6944 30.9549 35.4197 0.0790699 0.0557947 -0.0120374 
207 2 71.7532 -6.73387 -9.90459 0.076013 -0.0569113 -0.00681985 
208 2 71.9818 -6.81561 -7.22806 0.0804109 -0.0479707 -0.101362 
193 1 72.2371 -4.76231 -10.7088 -0.0112041 -0.0022185 0.000481465 
205 2 71.6844 -5.61029 -11.6063 0.045329 0.0416824 0.073726 
195 1 71.6938 -5.6298 -9.63733 0.0175891 0.0188041 -0.0196673 
187 1 72.8592 -3.42761 -10.6073 0.00197858 0.00849079 -0.00154662 
196 1 72.2506 -5.8895 -6.9747 -0.001765 -0.0172352 0.00114453 
188 1 72.4486 -5.47548 -8.44467 -0.00398261 0.0104281 0.00682958 
181 1 74.11 -3.68141 -9.60472 -0.00395994 0.0132273 -0.000970734 
182 1 73.6082 -4.48101 -8.67351 0.00133489 0.00839012 0.00494235 
184 1 74.5192 -4.49735 -7.55834 -0.00979163 0.00345087 0.0186888 
183 1 74.8697 -2.26305 -9.76291 0.0180968 0.00800238 -0.0212252 
186 1 75.2372 -3.22561 -7.41783 -0.00956885 -0.0336947 0.0205617 
192 1 75.8252 -2.84505 -6.19626 0.00445972 0.0217287 0.0305223 
185 1 75.5375 -2.18542 -8.47417 0.0175767 0.00680189 0.00854227 
189 1 74.6154 -1.24791 -10.5542 0.0258285 -0.0185286 -0.0193011 
190 1 74.5031 -5.05885 -6.25184 -0.00960062 -0.0112927 0.00972572 
199 1 73.2046 -5.78632 -5.91628 0.00666467 -0.0211544 0.0093334 
191 1 76.1431 -0.870798 -8.34764 -0.00571149 -0.0200689 -0.0130395 
194 1 72.6466 -2.37962 -11.5579 0.0132888 -0.00343657 0.0176015 
201 1 75.7934 0.218935 -8.94881 0.00538775 -0.00693055 -0.0300649 
213 2 76.5499 0.961277 -8.74374 -0.00382765 -0.115076 -0.0702125 
198 1 74.9366 0.186263 -10.253 -0.0203621 -0.0256218 0.0321358 
133 2 74.8921 0.99537 -11.0553 -0.017271 0.167386 0.00199563 
364 1 76.1766 -10.9062 0.0341998 -0.0116816 0.018714 0.0108889 
372 1 77.9415 -9.37914 -1.50082 -0.00329735 -0.0305808 0.0173266 
366 1 77.5347 -10.2553 -0.201607 0.0227355 0.0184881 -0.0117204 
396 2 79.6971 -7.92909 -2.11655 -0.0652901 0.0120923 -0.0327906 
383 1 76.8616 -9.50306 -2.38492 -0.0187658 -0.0129477 -0.00130253 
380 1 75.4808 -9.31781 -1.96567 0.0143747 0.00211953 -0.0131494 
395 2 76.9285 -8.89742 -3.30916 0.0399166 -0.0557309 0.00373591 
370 1 75.2825 -9.98656 -0.759793 0.000944338 0.0157113 0.000882721 
392 2 74.913 -9.27337 -2.89751 0.000723453 0.0537424 -0.0532446 
391 2 73.0697 -9.99694 -1.22864 -0.00765799 -0.0229509 -0.0546518 
379 1 73.8938 -10.3995 -0.737752 -0.0113024 -0.000647115 0.0258864 
384 1 78.9708 -8.31921 -1.17444 0.0132921 0.00612822 0.0065114 
382 1 79.7018 -8.63869 0.076454 0.0121964 -0.0204994 -0.0118782 
390 2 80.6082 -8.02659 0.498911 0.010431 -0.0099079 0.0664504 
211 2 72.9694 -6.68481 -5.3968 0.0932837 -0.0571516 -0.00332203 
204 1 76.0983 -1.62342 -5.71509 -0.00153955 -0.00303826 0.00546881 
202 1 76.4308 -0.514345 -5.33665 0.000727286 0.00344338 -0.00336385 
203 1 75.939 -3.87795 -4.98169 -0.0124753 -0.012928 -0.00314131 
215 2 77.0883 -3.96928 -4.42391 -3.36688e-05 -0.0440528 -0.0403237 
200 1 75.7511 -5.26169 -5.3016 0.0131974 0.00646065 -0.00793117 
212 2 76.1242 -6.09569 -4.82984 -0.0544541 0.0925574 -0.01591 
214 2 76.5368 0.588721 -5.35556 0.0138331 -0.0607087 0.00590458 
381 1 79.6358 -9.11643 2.66299 0.0300739 0.0111357 -0.0080158 
393 2 80.2726 -8.33143 2.86242 -0.0998291 0.0405718 0.0641081 
365 1 78.2187 -10.1886 1.17155 0.0119221 -0.0143305 0.0199994 
371 1 79.5457 -9.56892 1.25422 -0.00655111 0.00700114 0.0364531 
378 1 79.5242 -10.0202 3.67448 -0.0128873 0.00795168 -0.00296551 
495 2 80.0203 -10.0936 4.58694 -0.0193578 0.0840838 0.0176861 
369 1 78.6528 -11.2849 3.3991 0.000381613 0.00144809 0.0290382 
363 1 78.112 -11.3704 2.11869 -0.0212447 -0.00573588 0.00686119 
536 2 70.2758 10.3038 6.35077 -0.0232804 0.0143629 -0.0667092 
524 1 69.3435 9.65198 6.75154 0.0052464 0.00175536 0.0115955 
171 2 65.0368 -11.0063 8.25561 -0.00775445 0.0387269 0.00497811 
157 1 65.7112 -11.4562 8.91399 -0.0157188 0.00031855 -0.0149421 
160 1 69.1346 -11.4662 10.7436 0.0262316 0.0116075 0.000947871 
376 1 73.707 -11.7156 -0.0295807 -0.0155162 0.00261027 -0.0238168 
169 2 66.8567 -9.93815 8.61931 0.103638 -0.010068 0.00847127 
159 1 67.0964 -10.9756 9.11526 0.000152727 0.0113276 -0.0161781 
505 1 66.1807 11.1939 10.4237 0.0236859 0.00406788 -0.0118543 
197 1 73.2768 -1.14348 -11.2862 -0.0100966 -0.00140298 -0.0191459 
516 1 67.6515 7.91026 7.98373 0.0338305 -0.00846884 0.0249003 
525 1 65.2248 8.34659 11.9102 0.00830534 0.00891805 0.00392632 
152 1 68.062 -11.8789 9.83781 0.000887993 -0.0207802 -0.00907028 
507 1 66.6679 9.96096 11.0518 0.00354404 -0.016877 -0.00505959 
514 1 68.0837 10.5748 6.87888 -0.00559425 -0.0213888 0.00298292 
527 1 68.9097 8.44396 7.31004 -0.00867099 -0.0033282 0.0192292 
508 1 67.1993 10.3717 7.91487 -0.00615382 0.00768133 0.00490071 
538 2 65.7537 5.87737 10.5173 0.0165069 0.0587542 0.0298521 
515 1 66.3085 7.83455 10.9122 0.0276602 -0.00178319 -0.000513542 
509 1 66.7118 9.10897 10.1317 0.0184209 0.00921714 -0.00139031 
506 1 66.5512 11.4066 9.00622 0.00971387 0.0203273 0.000445033 
510 1 67.3418 9.13148 8.70572 0.0117997 -0.0110379 0.0227166 
526 1 66.3547 6.66844 10.1407 -0.0282234 0.0103429 0.0224482 
528 1 67.1989 6.9473 8.98679 -0.00814834 0.0043802 -0.00263224 
518 1 64.7641 11.7627 11.9653 -0.0117657 0.00975498 0.01846 
209 2 73.3463 -0.180313 -11.7262 -0.012569 0.129381 0.0575428 
534 2 64.2016 8.24137 11.9198 0.022062 0.01962 0.00064701 
278 2 68.079 0.257318 28.936 0.0220587 -0.0287176 -0.0218855 
521 1 64.8376 11.0648 13.2866 -0.00159717 0.009451 -0.00223165 
513 1 65.8205 10.0281 13.7085 -0.0201677 0.00316101 0.0156639 
530 2 64.6378 11.7279 14.448 0.0172253 -0.0129536 -0.0391459 
533 2 66.4243 9.84699 14.419 0.0489323 0.0290098 -0.00241894 
316 2 75.6689 -9.52392 21.7594 -0.0754364 0.0693082 0.00347077 
304 1 76.5126 -9.42712 22.2794 0.0315725 0.00541642 0.0188406 
296 1 76.8555 -9.03441 23.5932 -0.0180231 0.0303298 -0.00517718 
44 1 65.9905 -11.9429 28.0886 0.012856 0.00268738 -0.0107116 
307 1 77.8285 -10.1336 21.9875 -0.0206756 -0.00522089 0.000127436 
308 1 80.1247 -11.4393 23.0028 -0.0343813 -0.0160058 0.00098037 
298 1 79.1205 -10.465 22.5771 0.00950053 0.0193248 -0.00726985 
311 1 81.4279 -11.2991 23.3391 0.00580466 -0.0225891 0.0111495 
283 2 67.3455 0.0192476 29.3516 -0.00479503 -0.114442 -0.0870346 
292 1 79.423 -9.34656 23.4919 0.0168957 0.0236524 0.00381678 
290 1 78.3208 -8.71515 24.1157 0.00014416 -0.0187041 -0.00722048 
319 2 78.1138 -10.576 20.8277 0.00642006 -0.107872 -0.00697831 
522 1 66.0807 9.35586 12.4793 0.0147095 0.00690885 0.00394207 
67 2 62.614 -9.64082 27.549 0.0268696 0.00644281 -0.0889301 
46 1 62.1093 -11.9121 27.6488 0.0117989 0.0104271 0.0191157 
55 1 62.8839 -10.7075 27.464 0.0120796 -0.00236066 -0.00686421 
52 1 64.297 -10.5563 27.172 -0.0359576 -0.00366737 0.00104384 
324 2 83.6446 -9.9905 23.7593 -0.00271622 -0.0255708 -0.0786657 
51 1 65.3975 -10.8666 26.9016 -0.0350649 -0.00975392 0.0336418 
63 2 66.3236 -10.4371 26.6798 -0.037259 0.084354 0.0311052 
315 2 74.7451 -8.52892 23.8933 -0.0294161 0.0967867 0.0445555 
303 1 75.6535 -8.43395 24.3102 -0.00760944 0.00216125 -0.00592816 
302 1 77.4356 -5.90537 26.6311 -0.019301 0.0053037 -0.0024774 
314 2 76.6308 -5.03819 26.7014 -0.0232825 0.0729948 -0.00112248 
295 1 77.3099 -7.10567 25.7145 -0.0186135 0.00179591 0.00193931 
301 1 76.0175 -7.26667 25.1194 0.0141885 0.0147282 -0.0122643 
313 2 75.4974 -6.35854 25.3884 -0.00386687 0.0403684 -0.00826363 
312 1 82.859 -9.7852 24.3397 0.00210321 0.0110005 -0.00949292 
321 2 82.74 -9.81257 25.4593 -0.0634192 -0.056699 0.041352 
300 1 81.7687 -9.85345 23.4019 0.0260392 0.00470027 -0.0213242 
318 2 83.0108 -6.32141 27.8509 -0.0410782 0.0207126 0.0115596 
297 1 79.7956 -6.95621 26.615 0.0363827 -0.00537248 -0.00260774 
293 1 80.7648 -7.7058 24.4568 -0.00424555 -0.0131626 -0.00312791 
294 1 80.7041 -8.80836 23.6098 -0.0117562 -0.0153668 0.0270493 
291 1 79.7533 -7.93866 25.5472 0.005321 -0.0272188 0.0232139 
289 1 78.3366 -8.04616 25.1236 0.00750766 0.0132954 0.00327463 
310 1 81.8853 -6.95194 24.8972 0.000135068 -0.0357975 -0.0125049 
322 2 82.6293 -7.39376 24.2802 -0.000333241 0.0610774 -0.0463664 
306 1 82.1166 -6.96821 26.3162 0.0207822 0.0283982 -0.0129481 
299 1 82.1552 -5.77012 27.1741 -0.0171106 -0.0206794 -0.0236247 
317 2 79.1535 -5.03081 26.3634 -0.0500313 0.0131248 -0.121135 
305 1 78.8151 -5.84421 27.0748 0.0109174 -0.0145175 0.0162824 
309 1 81.0824 -6.61049 27.3253 -0.0119343 0.00366996 -0.00969098 
206 2 71.8953 -2.6343 35.7093 -0.0123168 0.0307797 -0.0558521 
464 2 62.9147 11.7641 30.7374 0.121853 -0.0394874 0.0869493 
150 1 68.3053 32.3627 10.1051 0.00593939 0.0222086 0.0151316 
497 2 60.5073 24.954 -6.52854 0.062757 0.0264053 -0.0422043 
491 1 60.9848 27.0641 -5.49924 -0.00175291 0.00165074 0.00438859 
473 1 62.8967 24.0196 -5.60861 0.00108767 -0.00870847 -0.022912 
472 1 61.7665 23.5217 -5.59777 0.0194684 0.00361913 0.00163667 
503 2 61.2717 21.8766 -6.84088 -0.082297 -0.0340769 -0.0374372 
478 1 61.7752 22.1359 -5.9487 -0.00321558 0.0136389 -0.0060212 
470 1 60.4998 23.7899 -4.48972 -0.0219047 -0.0117671 0.0148066 
487 1 61.2958 21.1645 -4.76876 -0.0174542 0.00838011 -0.0119495 
484 1 60.2259 21.3344 -3.86267 -0.0467761 0.0115245 -0.0445764 
148 1 68.9518 33.7303 10.4434 0.00593375 -0.00299248 0.00371187 
499 2 60.2154 20.5384 -2.81572 -0.068425 -0.0318366 0.0281126 
480 1 63.9447 24.6734 -5.82704 0.0019902 0.0323516 -0.0176058 
490 1 65.1039 25.4021 -5.79174 0.0147602 -0.012759 -0.0139124 
492 1 66.2754 25.6474 -5.13486 0.0205475 -0.00577391 0.00429533 
474 1 60.335 25.8304 -5.79003 0.0101881 0.0259197 -0.0228698 
500 2 61.4991 27.6377 -6.39531 0.0344653 -0.0377021 0.00101936 
154 1 69.6124 34.0567 11.7394 -0.00553063 0.00369055 -0.0177195 
486 1 68.9803 26.0201 -4.26587 0.00684013 0.0262156 -0.000988935 
502 2 69.7397 25.21 -4.4334 -0.00539939 -0.00479819 -0.117575 
489 1 67.7533 25.5365 -4.86185 -0.00105026 -0.00685603 0.0119493 
501 2 61.1754 28.7825 -4.1827 -0.038045 0.00907205 -0.0215288 
163 1 70.2076 35.6787 11.4211 0.0109204 -0.0106858 0.00344843 
172 2 71.2452 35.7912 11.4212 0.00183347 0.0457 -0.0537293 
103 2 62.0646 20.8575 1.96452 0.0164822 -0.0574676 -0.00807516 
88 1 61.6878 21.0619 3.02934 8.35333e-05 -0.0202093 -0.00862952 
91 1 60.3299 20.809 3.40597 0.0248163 0.0169749 -0.0157286 
368 1 74.5994 35.6933 0.97305 -0.025206 -0.0140055 0.0176849 