ITEM: TIMESTEP
1110000
ITEM: NUMBER OF ATOMS
576
ITEM: BOX BOUNDS pp pp pp
-1.2000000000000000e+01 8.4000000000000000e+01
-1.2000000000000000e+01 3.6000000000000000e+01
-1.2000000000000000e+01 3.6000000000000000e+01
ITEM: ATOMS id type x y z vx vy vz 
138 2 -10.9426 -2.4547 -6.21242 0.00187254 -0.00214824 -0.0801323 
394 2 11.0512 -7.49045 0.123993 0.0371407 0.00330113 0.0323997 
144 2 10.6195 -8.34557 0.566229 -0.00211258 -0.0232771 0.0289081 
112 1 -10.3591 -0.469278 -0.0969756 -0.0150726 0.0210012 0.0033499 
110 1 -9.34789 0.0164078 -0.934314 -0.0174797 0.0103382 -0.01339 
114 1 -11.5181 -1.17164 -1.13834 0.00964242 0.024787 0.0169101 
109 1 -9.21253 -0.468279 -2.27083 -0.0146198 0.0211982 -0.0199414 
111 1 -10.3225 -0.743471 -3.23164 -0.00146395 0.00296132 -0.0187651 
117 1 -10.4308 -0.898923 -4.63918 -0.00109547 0.0408294 -0.0140437 
113 1 -11.5938 -0.922561 -2.40723 0.00275014 -0.0310655 -0.00741698 
504 2 1.85331 -10.1031 3.46285 -0.00852269 0.0134757 -0.0894993 
115 1 -7.84588 -0.671799 -2.82053 0.00429613 -0.00688944 -0.000627439 
126 1 -11.2673 -2.02726 -5.29818 -0.020264 -0.014948 0.0165768 
391 2 2.45264 3.80754 -1.37985 0.0572559 -0.0386111 -0.00878969 
123 1 -6.68556 0.165761 -0.602412 -0.019924 0.0103456 0.0396815 
121 1 -7.00507 -0.106721 -2.00239 -0.0112177 0.00860272 0.0230388 
139 2 -7.62498 -0.482943 -3.92075 -0.0156182 -0.0688066 0.000997735 
496 2 -6.63733 1.19056 -0.197639 -0.0622132 0.106093 0.0147922 
386 2 0.624129 -2.78661 -3.0119 -0.0769139 0.0152374 0.00343382 
378 1 4.65982 -4.2038 -0.56184 -0.00316268 -0.00427328 0.0082305 
377 1 2.23197 -3.90887 -1.67739 0.0155697 0.00590397 0.019582 
369 1 3.60902 -3.55968 -1.49975 -0.0145701 0.0111476 0.00166626 
495 2 4.45854 -4.61782 0.420454 0.0365021 -0.0178391 0.000901136 
374 1 1.35257 -2.62686 -2.17694 -0.0195372 0.000224737 0.0207968 
367 1 1.64304 -1.20501 -1.9264 -0.000834432 -0.0100872 -0.00573649 
363 1 3.95882 -2.19023 -1.80074 0.00848735 -0.000347013 -0.00578736 
365 1 5.34222 -1.83733 -1.93698 0.00381182 -0.0118583 -0.0125188 
381 1 5.96802 -3.87267 -0.832326 -0.0199459 -0.0126642 0.00846657 
361 1 3.11123 -0.97898 -1.65553 -0.00249996 -0.0059385 -0.0179394 
366 1 5.84142 -0.591451 -1.81005 -0.0039158 0.00521774 0.0152288 
382 1 7.85988 -2.58159 -1.79026 0.00197148 -0.00872891 -0.00955573 
371 1 6.24168 -2.88115 -1.59032 0.00565936 0.010861 -0.0193578 
396 2 8.45671 -3.29467 -2.24769 0.0578306 -0.0232652 -0.000266185 
384 1 8.57918 -1.35854 -2.05218 0.0106165 -0.0173099 -0.0216353 
134 2 -9.63934 2.41177 -3.74974 -0.066333 0.0680997 0.00585507 
125 1 -10.4875 0.737444 -5.11901 -0.0190701 -0.00565056 0.00751608 
122 1 -9.68212 1.36609 -4.19017 -0.0337347 -0.0235254 0.00161385 
387 2 -0.471282 -0.111359 -1.90593 0.104909 0.0263623 -0.0789909 
373 1 0.604662 0.054278 -1.81407 -0.0121916 -0.00691556 -0.00211184 
375 1 1.07248 1.11438 -1.27399 0.00800965 -0.0124083 -0.00738904 
362 1 3.3692 0.429848 -1.53816 0.0108811 0.00240275 0.0200181 
368 1 2.43571 1.45595 -1.66001 0.0154817 -0.0259836 -0.0145541 
370 1 5.38033 1.75146 -1.0604 -0.00671725 -0.0249255 -0.0134827 
379 1 4.1816 2.74813 -0.535923 -0.00458384 0.000290934 0.0206076 
364 1 4.8962 0.510644 -1.6555 0.0150987 -0.016493 -0.0138719 
372 1 7.32043 -0.374644 -1.92238 -0.0038633 0.0179707 0.00402488 
380 1 6.80035 1.97873 -0.910647 0.0207447 -0.00543074 -0.00967906 
383 1 7.8166 0.847914 -1.52225 -0.00186271 0.00997225 0.0144607 
395 2 7.14353 2.73501 -0.347645 -0.0194135 0.0479498 0.00234064 
392 2 8.70223 1.1748 -1.64834 -0.0120152 -0.0489296 -0.0585759 
118 1 -10.7009 0.163244 1.16421 0.0172395 0.00554673 0.00286033 
376 1 3.14248 2.92503 -1.46045 -0.0107685 0.00215423 -0.0356052 
116 1 -8.11839 -0.0853805 -0.117216 -0.0110658 0.00518108 -0.00635606 
71 2 1.50867 -10.3887 4.43844 -0.0115185 -0.0673255 -0.00924741 
205 2 -9.64101 1.34966 2.55585 -0.0507627 -0.0219106 -0.0756358 
127 1 -9.55291 0.438619 2.12504 0.0294616 -0.00940802 -0.0185007 
124 1 -8.56284 -0.0269825 1.30691 0.0017826 -0.0186259 0.0035743 
128 1 -11.9068 -0.132254 1.59486 -0.00182373 0.00983171 0.000601754 
140 2 -12.0013 0.220493 2.76042 -0.00475738 -0.0103743 -0.00476659 
271 1 -10.9874 -9.98372 32.4316 -0.0149462 -0.0194408 -0.0346459 
272 1 -8.91503 -11.2368 30.6857 -0.00465004 0.00510553 -0.0112798 
262 1 -9.93895 -11.06 32.0334 -0.0113839 0.00982693 -0.0047587 
275 1 -7.65559 -11.8839 31.1151 0.0162225 -0.0113328 -0.0182522 
85 1 11.8037 -5.69169 17.8833 -0.0155563 -0.0070497 -0.00833726 
100 2 11.5758 -5.99763 18.9014 -0.0752894 -0.0348169 0.0498425 
135 2 -2.75468 26.2615 -10.9005 0.00842307 0.00523289 -0.033046 
282 2 -3.71273 25.9325 -10.5936 0.0382425 0.0286609 0.0224205 
104 2 4.44536 26.8587 7.77449 -0.0932183 0.0521905 0.0298908 
246 2 11.868 34.6532 7.14883 0.0834778 -0.0111072 0.063377 
445 1 -1.30348 17.2038 8.9348 0.00754319 -0.0147156 -0.000150814 
439 1 0.0903336 17.0918 9.31168 -0.00160001 0.0382335 -0.040474 
457 2 0.935049 16.5146 8.97943 -0.0668557 -0.092536 0.00385633 
453 1 4.19514 17.2671 11.1673 0.0140659 0.0130352 -0.0100603 
441 1 2.84818 17.2378 10.9727 -0.0215805 -0.00485476 0.000619257 
465 2 4.5828 16.3875 11.6839 0.0378121 0.0128539 -0.0184021 
436 1 -0.299129 20.6655 10.0201 0.00594923 0.0158195 -0.0215223 
433 1 0.633969 18.2377 9.83446 0.0122021 0.0091002 -0.00165601 
434 1 -0.513439 19.3006 9.86881 0.0112098 0.00715505 0.00727504 
460 2 -4.02329 19.4824 10.7598 -0.017945 -0.0176666 -0.0135095 
442 1 -1.39496 21.736 10.6741 -0.0138809 -0.0275784 0.0159494 
459 2 -3.63978 17.4521 10.1131 -0.0663172 0.0833546 -0.0201718 
448 1 -2.9301 19.6794 10.7744 -0.000588785 -0.00537287 0.00267745 
451 1 -2.50046 20.959 11.2515 -0.00773604 -0.00297399 -0.00486811 
440 1 -1.78095 18.7275 10.3353 0.0277103 -0.0250041 -0.00256008 
447 1 -2.44409 17.4459 9.85334 -0.000324308 -0.021781 0.000895481 
467 2 0.569386 24.3395 11.7761 -0.0677701 0.0852614 0.0318638 
452 1 -0.933796 22.8019 11.238 0.00971237 -0.000345616 -0.0104497 
438 1 0.843947 20.759 10.7406 -0.00735628 0.0100377 -0.0178128 
450 1 4.59646 18.7953 11.2303 0.0220176 -0.00137856 0.0240677 
435 1 1.85922 18.4267 10.4945 -0.00610383 -0.000401941 0.000247599 
503 2 3.94981 26.779 8.31178 -0.0149841 -0.073104 -0.0252995 
455 1 0.350369 23.2388 11.5599 -0.00742962 -0.00447957 0.0130706 
461 2 4.84 19.0835 10.1579 0.0466601 0.0586485 0.0436382 
437 1 1.70318 19.6865 11.1355 0.00674614 -0.0176535 -0.00121407 
444 1 1.26827 22.0341 11.4936 -0.00506574 0.00412455 -0.0198711 
454 1 2.55511 20.2957 11.9649 0.0281308 -0.0105829 0.0061044 
64 2 -1.35643 13.3183 14.1761 -0.0717013 -0.0938297 -0.0301158 
170 2 -1.07814 13.8524 13.7269 0.0663157 0.018366 -0.0308553 
462 2 3.16436 19.2402 13.3318 -0.0454113 0.0124872 -0.0312788 
257 1 -10.4792 33.4011 32.9245 -0.00842751 0.0162755 0.0165853 
254 1 -11.8313 35.6296 32.7645 -0.0376457 0.00709275 0.00722554 
456 1 2.31086 21.6661 12.3173 -0.00310631 -0.0235926 -0.0177461 
273 1 -9.99166 31.0541 33.5066 0.0181124 0.0125185 -0.00402386 
468 2 2.73547 22.4421 12.7932 0.0718034 -0.0271804 -0.04035 
464 2 2.27902 21.6031 20.7119 0.0221359 0.0126449 0.066527 
449 1 2.81836 20.5712 20.7821 -0.0118016 -0.000539392 -0.00418274 
458 2 2.92492 18.6969 20.4899 -0.0858141 0.00119983 0.104232 
446 1 2.31261 19.5263 20.8485 0.0377663 0.0091736 0.00253185 
443 1 3.74739 19.427 12.3568 0.00706453 0.0215232 0.00165078 
575 2 -8.93527 30.6211 33.3609 -0.0894187 -0.0120413 -0.0102111 
276 1 -8.31547 34.0612 32.4145 0.00607354 0.00865304 -0.0235506 
274 1 -8.19438 32.7085 32.8699 -0.00137265 0.000568407 -0.00782741 
258 1 -9.53944 34.6071 32.9024 -0.00300952 -0.00408343 -0.00380177 
270 1 -11.348 30.6607 33.0421 0.00942776 0.00337582 0.0166565 
288 2 -6.28784 34.5999 32.1869 -0.0645308 -0.00524211 -0.0192374 
264 1 -7.25155 34.9562 31.9369 0.000419119 -0.0096715 0.000130298 
256 1 -10.2344 35.755 32.7573 0.0136046 0.0190245 -0.0179336 
286 2 -7.4152 31.9518 32.8666 -0.00652288 -0.150859 0.0126783 
263 1 -9.55259 32.3921 33.2597 -0.00265648 -0.0155597 -0.028191 
255 1 -11.9045 33.35 32.7305 0.0163922 0.0223442 0.0289896 
463 2 -3.2955 21.4756 11.7689 -0.0885884 0.041718 -0.0532419 
285 2 -12.2812 29.4972 33.2086 -0.0722339 -0.000583154 -0.0523937 
168 1 19.8241 -6.11661 3.56568 0.012099 0.0128066 0.0161001 
156 1 18.8859 -5.48186 4.06701 0.0118345 -0.0224253 0.0584502 
180 2 20.8233 -5.95126 4.29879 -0.00858366 0.00575749 -0.00330058 
108 2 15.4789 -2.91145 16.4022 -0.0500584 0.0220457 -0.0197889 
99 2 14.1977 -2.3236 14.8841 0.0158886 0.0428285 -0.0403866 
475 1 14.5028 -3.06765 15.8441 -0.00233242 -0.0171011 -0.0183296 
80 1 12.8715 -5.16065 17.0604 0.00334618 -0.00421046 -0.0183212 
87 1 13.7643 -4.09964 16.5097 -0.00392363 -0.0369306 0.00876485 
105 2 29.6949 -3.5514 16.0733 -0.0249283 -0.0145194 -0.029367 
466 2 29.2293 -3.8851 16.4696 -0.0327937 0.0846835 -0.049537 
336 1 27.2914 11.6326 29.0282 -0.000573251 0.00633473 -0.00557943 
352 2 24.5702 -10.3754 29.5643 0.0106086 0.0118089 -0.0145117 
68 2 28.0883 10.9488 24.3441 -0.0496842 -0.0679832 0.0026064 
351 2 25.2023 6.62856 24.1735 -0.0296699 0.0188027 -0.0453929 
350 2 23.2343 5.52074 27.2836 0.042555 0.03452 0.0124658 
349 2 24.7959 5.21148 26.0026 -0.00994232 -0.0108812 0.0511131 
353 2 22.1197 6.24351 29.5295 0.0564387 -0.000643234 -0.00264243 
338 1 23.5462 6.39816 27.8692 0.00358415 -0.00229189 0.0168718 
341 1 22.9569 6.87192 28.9287 -0.00651265 -0.000805931 -0.0147107 
343 1 27.7355 10.1366 25.048 0.0102941 -0.00743765 -0.0347315 
340 1 27.0898 8.95251 24.4808 -0.015809 -0.021159 0.00927665 
337 1 25.2306 6.14273 26.272 0.00109739 0.0092671 0.0181519 
331 1 24.6972 7.04153 27.1593 -0.0036125 -0.00958764 -0.0121271 
328 1 26.6749 10.25 27.2235 -0.0178927 -0.00808806 0.00130684 
327 1 24.7299 8.78916 28.8404 -0.0170512 0.00649012 -0.00300164 
329 1 25.3933 9.91566 29.3728 0.0188044 0.00469786 -0.0257898 
332 1 26.3482 8.08898 25.5259 -0.00853316 0.00203283 0.000628948 
326 1 26.0695 8.96232 26.722 -0.0130465 0.0151093 0.0178521 
325 1 25.1239 8.38608 27.5278 -0.0140402 0.0134553 0.000827802 
339 1 25.6363 7.00325 25.069 0.0239531 -0.00475581 -0.00795812 
330 1 26.4562 10.5548 28.5971 -0.0104746 -0.00999438 -0.00111881 
334 1 27.6067 10.8857 26.3034 0.0242314 0.0107484 -0.00212136 
333 1 23.8846 8.00156 29.3912 0.00271328 0.017424 -0.0112326 
216 2 23.2075 10.2144 32.0313 -0.047424 -0.0560099 0.0471755 
354 2 22.523 8.10639 31.0675 0.0137959 0.0414969 0.045922 
342 1 23.5115 8.46489 30.7501 0.0154627 0.0225899 -0.00251002 
345 1 23.4916 9.83355 31.0883 -0.0297023 -0.0240325 0.0180794 
346 1 25.4264 11.9495 30.6224 -0.0171904 0.00398002 0.0055669 
335 1 24.6022 10.7043 30.2222 0.0143239 -0.0063148 -0.00659877 
574 2 25.3461 -10.2571 29.4859 0.0826562 0.0782217 0.0671574 
570 2 35.7149 -4.29237 30.7943 -0.0627081 0.0100867 -0.0198667 
228 1 14.6309 30.4863 4.87033 0.0135281 0.00259351 0.00241269 
236 1 15.025 29.0492 4.93352 0.00708497 -0.00237869 0.00504216 
388 2 15.0025 28.319 3.97308 -0.0650185 -0.0602612 -0.0421265 
251 2 16.3938 27.2705 5.64599 -0.0581759 0.00107586 -0.0529683 
240 1 13.4501 31.1648 4.40466 0.00654531 0.0156154 0.0104024 
252 2 12.7193 30.7355 3.57785 -0.0228349 0.0333097 -0.00281979 
357 2 13.3667 33.2869 3.64658 0.032038 0.00897348 -0.0938736 
238 1 13.5248 32.564 4.28763 -0.00955208 0.00181513 0.042237 
227 1 14.1267 32.9445 5.65687 0.0111881 0.0296023 0.00232591 
237 1 13.5113 33.7634 6.71553 -0.00149656 -0.00251252 0.00875751 
222 1 15.6966 30.9719 5.95631 0.00645763 -0.00250282 -0.00900935 
239 1 16.0903 28.379 5.81031 0.00147678 0.0392282 0.00629248 
226 1 17.1426 29.2293 6.41237 -0.0179944 0.00293218 0.0155092 
235 1 18.339 28.5123 7.28225 0.00166475 0.00191557 0.00303412 
247 2 19.2397 28.1041 6.79718 0.0835835 -0.00592104 0.0129555 
244 2 18.0836 28.2594 9.29411 0.024837 0.0493458 0.000417972 
232 1 17.9727 29.0206 8.62755 0.0073178 -0.0061903 -0.0126215 
221 1 15.3606 32.3797 6.21826 -0.00753758 0.0377462 0.0269782 
223 1 18.2268 33.2239 8.95497 -0.00553166 -0.025261 -0.0189488 
220 1 17.0552 30.5979 6.40079 0.0140512 0.00797846 -0.0116689 
242 2 19.107 35.2954 8.95957 0.0455774 -0.0139085 0.0590641 
233 1 18.4911 34.6719 8.58063 -0.0215566 -0.000317786 -0.0348402 
225 1 16.1088 34.4648 7.73234 0.024338 -0.012424 -0.011343 
219 1 16.201 32.9768 7.27651 -0.00629459 0.00678571 -0.0181497 
230 1 17.1024 34.8909 8.12589 -0.00659688 0.0122082 -0.00586957 
217 1 17.5454 32.5379 7.92011 -0.0341661 0.0242037 0.0189204 
218 1 17.3742 31.1851 7.79139 0.0212774 -0.0251531 -0.0228002 
224 1 17.8167 30.5092 9.00103 -0.0135378 0.00450969 0.0102224 
243 2 19.174 30.4098 10.8821 0.0427645 0.0274242 0.00918325 
231 1 18.5564 31.0692 10.1706 0.0104354 8.15979e-05 0.00122504 
229 1 18.4795 32.4523 10.1943 0.0150653 -0.0171031 0.0136096 
241 2 19.1593 32.9865 10.94 0.061998 -0.0608149 -0.0460409 
234 1 12.7926 34.3865 7.56939 0.0146839 0.0115691 0.00855683 
249 2 13.1246 35.3129 8.10109 -0.00637324 -0.0249989 0.0165454 
318 2 15.3354 23.1738 2.29398 0.108629 -0.0526414 -0.084296 
389 2 15.4501 23.134 1.38402 0.0791436 0.0013378 -0.00577066 
278 2 30.7239 13.8813 26.0384 -0.019835 0.00821408 0.0761882 
283 2 30.543 13.2585 26.5301 0.0542475 -0.0767917 -0.00479223 
347 1 28.5034 12.1391 28.2 -0.0205376 -0.00992351 0.0270977 
348 1 26.4692 12.6206 29.8995 0.0108981 0.00323578 0.00846629 
356 2 28.3782 13.2175 26.3509 0.0306076 -0.0410449 0.0834853 
344 1 28.0635 12.2372 26.8304 -0.0044003 -0.0180279 0.0300707 
494 2 34.0512 27.4403 30.8606 -0.0673587 -0.0855983 -0.0451357 
498 2 34.6983 25.095 32.275 -0.0158284 -0.174503 0.0343392 
485 1 34.9289 25.7716 31.3801 -0.00147302 0.00760101 0.0101344 
482 1 34.2519 26.5884 31.5036 0.0130844 -0.0098095 -0.0403693 
360 2 26.8818 13.4158 30.3064 0.0228164 -0.0222838 0.0611235 
358 2 24.5997 12.4197 31.3095 0.0125312 0.044293 -0.109817 
359 2 28.6163 13.1714 28.5458 -0.04386 0.0834363 0.0229137 
176 2 50.0254 -2.32897 -12.0223 -0.0139639 0.0505086 -0.0476255 
248 2 49.6676 -2.81838 -11.5935 0.0142552 -0.0100698 0.028074 
317 2 50.9245 -6.22049 8.42289 0.113622 0.0409175 -0.0796952 
291 1 51.9825 -5.21649 10.5402 0.0134383 0.00867092 -0.0189223 
309 1 51.3895 -5.35672 9.09032 0.00929966 -0.0200822 0.00400267 
297 1 52.2351 -4.08652 8.59857 0.000474598 0.0156326 -0.0141612 
305 1 52.048 -3.00527 9.50347 -0.0125343 0.0113199 -0.0156009 
302 1 51.8142 -3.55858 10.8558 0.00547421 0.00395866 -0.0185381 
35 2 51.9747 -1.89621 9.22454 0.00656998 0.0443973 -0.0117797 
316 2 50.4101 -1.67885 11.8893 0.0266049 0.00424992 0.118742 
430 2 45.2521 4.84535 6.60677 0.00387187 0.0171158 -0.0110516 
420 1 45.4528 5.4917 7.54506 0.00910889 0.00149765 -0.0146922 
250 2 47.5561 5.03319 7.98521 -0.0373217 -0.0463119 0.0498333 
418 1 46.7658 5.83104 8.05931 -0.00858303 0.00267531 0.00864524 
405 1 44.2641 6.32025 7.7318 0.0189853 0.0170941 -0.021775 
161 1 59.5037 0.804476 11.5308 0.00537388 0.0141757 -0.0144482 
158 1 58.6617 1.91715 11.8424 0.0114603 -0.0143225 0.00481108 
173 2 57.8252 2.49685 11.3001 -0.0627424 0.116171 0.00308904 
70 2 41.6124 7.8364 11.0453 0.0352052 -0.0840662 -0.00966912 
136 2 44.5599 7.09369 10.5682 0.0246045 0.0228298 0.068323 
429 2 40.6088 8.98595 9.38922 -0.0202606 0.054202 -0.0984024 
417 1 42.3589 8.09789 10.309 -0.000263567 0.0290751 -0.0136171 
407 1 43.5604 7.38219 9.96478 0.0218652 0.0234727 0.0279936 
403 1 41.8177 9.26051 9.59472 0.0180248 -0.00642686 0.0121039 
14 1 41.2436 8.91743 6.36215 -0.0152357 -0.0226936 0.00419079 
406 1 47.8383 11.5852 10.9033 -0.00419206 -0.00482314 0.0246227 
401 1 46.0208 8.33402 8.99291 -0.00239712 0.0276713 -0.00461376 
415 1 46.6515 9.08476 10.2172 0.00856321 -0.0055608 0.00411401 
306 1 54.0893 -6.06779 11.761 0.0286758 0.0138231 0.00411952 
408 1 46.4458 7.13216 8.52408 0.0227517 0.0214399 -0.019912 
400 1 46.7302 8.43135 11.6623 0.0196243 0.00457083 -0.0106132 
98 2 41.7662 9.78614 10.472 -0.0490824 0.0624821 0.0383276 
413 1 42.4691 9.81722 8.32679 -0.00625925 -0.0385632 0.00772533 
398 1 45.8505 10.5799 10.13 0.000198582 -0.0065108 0.0173843 
399 1 44.7503 8.80434 8.17992 -5.96802e-05 0.0105361 0.0120072 
404 1 45.7107 11.1031 11.4945 0.00822784 -0.0117418 0.00246879 
17 1 44.6086 10.3409 9.69168 0.010686 -0.0167648 0.0236414 
397 1 43.8469 9.67374 8.94444 -0.00749312 -0.0140567 0.0171455 
310 1 53.0339 -5.73437 10.9377 0.00906462 -0.00121671 -0.0236671 
410 1 41.8154 9.31127 7.39718 -0.0154572 -0.0295127 -0.0339402 
414 1 43.7908 7.49569 8.48295 0.00724298 0.00833209 0.0138345 
411 1 44.58 11.9954 11.3382 0.0340791 0.0224408 0.00234987 
289 1 51.4184 -1.19026 12.0216 -0.00573609 0.0159499 0.0264903 
29 2 40.1756 9.27359 6.17489 0.0394025 -0.157738 0.00186311 
293 1 51.6402 0.171773 11.0794 -0.0162759 -0.0186805 -0.0140678 
321 2 52.0594 0.907277 10.3864 0.106542 0.0918305 0.0400162 
412 1 47.0402 11.5326 12.08 -0.00895803 0.0185682 0.0368606 
422 2 41.8363 8.17764 5.88212 0.0864483 0.0198714 -0.000326274 
323 2 53.514 2.3984 11.4206 0.0275112 -0.0880923 0.0290776 
416 1 49.2969 11.8688 10.7741 0.00285081 -0.00748274 0.015844 
486 1 59.0063 -1.78263 22.2288 -0.0175213 0.0150905 0.029777 
480 1 58.3837 -3.44416 20.5244 -0.0058604 -0.00738565 -0.00102107 
315 2 52.7016 -3.37038 13.9625 -0.0848882 -0.0669741 -0.00320666 
301 1 51.7424 -3.12929 13.6128 -0.0048908 0.00529097 0.0131085 
490 1 59.423 -4.96062 18.4216 0.0169236 -0.0131113 0.00532285 
290 1 51.2025 -0.832736 13.4116 0.0030083 0.00451428 -0.00837704 
296 1 50.4331 -1.64402 14.3 0.0130462 0.00316257 0.0191454 
303 1 50.5103 -3.00792 14.2668 -0.00895707 0.0210288 0.00469699 
245 2 49.7994 -1.89846 16.4943 -0.0413254 0.036001 -0.0609131 
304 1 50.0043 -1.08581 15.4873 0.00945257 -0.0132713 0.00985596 
313 2 49.8761 -3.81618 14.9045 0.0168603 0.0621805 -0.12101 
172 2 52.4501 1.49816 17.3227 -0.0227492 -0.00794931 0.0823535 
299 1 52.8746 0.589202 17.4345 0.000960554 0.0248107 0.0158526 
307 1 50.1722 0.334474 15.7138 -0.00179104 0.0174966 0.0372947 
164 1 55.5388 0.867871 19.255 0.0250495 -0.0263497 0.00139779 
322 2 54.4637 -5.91746 12.9218 0.0329875 -0.0360162 -0.0018317 
487 1 57.6349 -4.05194 15.1229 -0.0114442 -0.00101266 -0.0133064 
502 2 57.6684 -5.01979 14.6558 0.0497263 0.117234 0.0577702 
175 2 56.2776 -3.03648 13.7622 0.0400195 -0.0298257 0.0566458 
149 1 58.2453 -2.00539 13.6442 0.0125511 0.00629677 -0.00813255 
154 1 55.728 -1.00624 16.1804 -0.00423333 0.0285131 0.00462462 
147 1 58.1792 -0.838969 12.7705 0.00999806 -0.0218563 -0.0111314 
148 1 56.5955 -1.39659 15.0217 0.0103754 0.00694103 -0.0142 
150 1 57.1678 -2.5554 14.3236 0.0102973 0.00996477 0.0216635 
155 1 59.4444 -2.34232 14.1738 -0.0296618 -0.0253555 -0.000699111 
484 1 59.062 -3.68405 14.4573 0.00353086 -0.00875105 -0.0217661 
478 1 58.1108 -3.59739 16.5251 -0.014261 0.0100838 0.014238 
146 1 56.5669 -0.174668 14.3031 0.0229265 0.00452491 0.0176224 
166 1 55.9949 -0.822822 17.693 -0.0099778 -0.0135658 -0.00114526 
499 2 57.556 -2.78112 16.9704 0.0757674 0.0224177 0.0428317 
153 1 59.2841 -0.383932 12.1716 0.0175206 -0.00437589 0.0080275 
472 1 59.138 -4.50622 17.0396 0.00766152 0.00926812 -0.00481242 
319 2 49.4833 0.852237 16.4477 0.022528 -0.049498 -0.0704844 
163 1 53.5425 0.398936 16.1777 0.0107041 0.017397 -0.0163011 
178 2 52.974 -0.0564192 18.5027 -0.0447225 -0.127793 0.0472556 
292 1 51.442 0.508543 13.3927 -0.0071951 0.00060562 -0.0173328 
300 1 52.2171 1.19423 12.4365 0.0188604 0.00028975 -0.0266708 
312 1 50.3937 4.54424 16.5252 -0.0224947 0.00551749 -0.0199622 
311 1 49.9767 3.60303 15.8135 0.0157886 0.000324991 -0.0069707 
298 1 50.9345 1.19516 14.8108 -0.00189806 0.0128216 -0.00754234 
308 1 50.1321 2.30473 15.1835 0.000714665 0.00848607 -0.0238538 
324 2 50.8908 4.91559 17.3799 -0.0786573 -0.03224 0.107863 
294 1 52.9531 2.42022 12.3458 0.0133512 -0.0129882 0.0111728 
390 2 56.4733 0.945213 18.1019 0.0349986 0.086748 -0.0455569 
393 2 55.0111 1.66934 19.839 -0.0152358 -0.0140936 -0.0118136 
320 2 53.2703 2.84272 13.2768 0.0178786 0.0971603 -0.0625295 
489 1 57.9396 -2.6252 21.5643 -0.0250657 -0.0149055 -0.0120318 
145 1 57.4695 0.322427 13.2543 -0.019992 0.00849627 0.0239729 
169 2 55.9441 3.25186 15.4604 0.030689 -0.0579276 0.02053 
152 1 55.8425 0.973263 14.8443 -0.00135388 0.00678081 0.00199494 
160 1 55.0955 0.326401 16.0213 0.00639295 0.0166827 -0.0248759 
157 1 57.0765 2.65133 13.74 -0.00165853 0.00495794 0.00179515 
159 1 55.9683 2.39545 14.5602 -0.0115217 -0.0161383 0.0270379 
151 1 57.6867 1.58325 13.0795 -0.0197109 -0.0173059 0.0203415 
171 2 57.1517 3.7158 13.3567 -0.0527031 -0.0347956 -0.0553995 
426 2 48.7973 8.22375 12.2611 -0.00308798 -0.0318214 -0.0485203 
167 1 55.5127 -0.28174 19.0641 0.0169415 -0.0218942 -0.00374244 
402 1 47.7957 7.85706 12.4746 -0.0165459 -0.00699904 -0.0326804 
385 2 36.0899 -3.6682 30.9115 -0.0807485 0.00472203 -0.00051677 
425 2 47.5676 7.78289 13.5457 0.0712759 0.0488097 -0.00248922 
473 1 58.8885 -4.20743 19.4411 0.0104798 -0.00527295 0.0230585 
137 2 56.8674 -2.62346 21.9009 -0.0689589 -0.0300709 -0.00418392 
295 1 51.7656 -2.79446 12.0671 0.03949 -0.0189215 3.46742e-05 
497 2 59.1543 -0.104127 21.3397 -0.0932709 -0.0231733 -0.0637515 
492 1 59.8192 -0.635771 22.1031 -0.0210388 -0.00319404 -0.00255637 
103 2 48.9016 30.6804 8.98498 -0.0230548 -0.0368825 -0.00823093 
60 1 47.1625 21.2595 -10.527 0.00669047 0.0182816 0.00357782 
424 2 43.7237 13.768 11.8192 -0.0888052 0.0318122 0.0278619 
69 2 46.1808 21.2428 -9.85136 0.0994849 -0.0578293 -0.0793531 
533 2 46.6802 24.6072 -11.4991 -0.00774167 0.00390795 0.0255166 
45 1 51.931 18.8666 -11.2067 0.0126529 0.00534118 0.0322873 
47 1 51.5739 19.799 -10.3866 -0.00670301 -0.0275413 -0.00289474 
66 2 51.7184 21.2024 -9.22076 0.0882942 -0.0971362 0.0319479 
54 1 48.5916 21.1211 -10.4798 -0.0230928 0.000253924 -0.0106097 
57 1 50.8878 20.792 -9.75541 0.00761912 -0.00935317 0.000819837 
58 1 49.8934 21.0081 -10.8997 0.00986603 0.0003855 -0.0119742 
88 1 49.8737 30.6061 8.26779 0.0039487 -0.00889404 -0.00301404 
519 1 41.7655 29.8487 -10.7642 -0.0222443 0.0163905 0.00813538 
512 1 41.1095 28.8158 -11.8202 0.0157692 0.0176127 0.0172333 
531 2 41.2443 30.7842 -10.3926 0.0265723 0.0217461 -0.0273119 
521 1 44.9204 25.5452 -9.97374 0.00224557 0.00297589 -0.00215346 
530 2 45.1248 24.7498 -9.21982 -0.00129632 0.0393928 -0.0277043 
529 2 43.1434 25.8567 -9.34071 -0.00303974 -0.0492512 -0.0469558 
513 1 45.8777 25.3546 -11.119 0.00846465 -0.0169333 0.0125388 
518 1 43.6687 26.2962 -9.96783 0.00214357 -0.0145676 0.0127204 
511 1 43.1348 27.5887 -10.6734 0.0186676 0.00813225 0.0184684 
517 1 42.8992 29.0613 -10.2533 -0.00813375 -0.027767 -0.0374442 
505 1 43.0344 27.2203 -11.9842 -0.00115578 -0.00337159 -0.0281756 
419 1 50.4227 12.497 10.9842 -0.018183 -0.00252923 0.0117518 
101 2 46.8424 28.0068 0.155586 -0.081091 -0.0301061 -0.0555067 
93 1 47.7442 28.6745 0.129384 -0.0219321 0.0101826 -0.0171786 
89 1 50.9317 28.1241 -1.44123 -0.00932968 -0.0091068 0.018828 
81 1 49.9288 28.4837 -0.461968 0.00222093 0.0161793 0.0141053 
90 1 48.6087 29.001 -1.03645 -0.0349425 0.0105265 0.0308308 
86 1 52.1897 28.3805 -1.48315 0.0223362 -0.0119534 -0.00604091 
79 1 52.6821 28.8761 -0.275831 0.005479 -0.000247334 -0.00207819 
83 1 48.2588 29.6611 1.12037 0.0077885 0.0114443 0.00373186 
75 1 50.6484 29.1962 0.708438 0.0133721 -0.0097235 0.0030358 
77 1 49.6601 29.837 1.48597 0.0161869 0.0221623 -0.0237866 
78 1 50.1657 30.2004 2.80743 0.00490341 -0.0247919 -0.017765 
76 1 51.5865 30.5916 3.28142 -0.00459163 0.0170136 -0.0103289 
97 2 53.6243 29.2927 -0.1109 0.0349265 -0.0189782 0.0433216 
102 2 46.0298 30.2196 1.97894 0.0464929 0.0110841 0.0336663 
106 2 47.1424 31.4466 3.46999 -0.00281159 -0.00656741 -0.0497219 
94 1 47.2214 29.9837 2.14477 0.00579306 -0.0300217 -0.00775694 
96 1 47.8224 30.8626 3.09522 -0.012519 0.0217818 -0.00661252 
73 1 51.9109 28.9625 1.19734 0.0117686 0.00345587 0.0252516 
107 2 48.4117 31.3356 5.3105 0.0118734 -0.00434242 -0.020808 
95 1 49.3011 31.182 4.83798 -0.008084 0.037643 0.0184759 
84 1 49.0199 30.218 3.65526 0.012589 -0.0359637 0.00263838 
92 1 50.571 31.1909 5.71792 0.00662947 -0.00424571 0.00143381 
355 2 53.5537 29.5365 2.6691 -0.0602326 -0.157466 0.00443158 
74 1 52.467 29.8053 2.26273 -0.0346392 -0.00354953 -0.00330526 
82 1 51.5451 31.2486 4.48514 -0.0130262 -0.00562908 0.0116976 
91 1 50.3067 30.7652 7.34867 -0.0202965 -0.0146864 -0.00497952 
65 2 52.4086 17.7887 -10.85 0.0518845 0.0192633 0.031152 
431 2 51.4118 12.3185 10.8277 0.147768 -0.0153169 -0.0628644 
535 2 39.4802 29.9051 -11.8597 0.0443754 -0.105036 -0.0542114 
428 2 47.7552 12.524 10.1636 0.0271976 0.0430026 0.0745679 
48 1 46.967 22.0233 -11.8509 0.00407015 0.0160879 0.0379256 
427 2 46.8701 12.2747 12.8478 -0.0385857 -0.0414574 -0.0229062 
53 1 51.5755 14.7817 33.3856 0.00847645 -0.0160018 0.000326592 
50 1 51.8188 15.7327 34.2717 0.00475363 -0.0310428 -0.00991655 
43 1 51.2221 17.1868 33.9936 0.0140624 0.00550184 0.0152885 
62 2 51.6557 13.8654 32.9109 0.0147908 -0.0335927 -0.0361845 
49 1 50.5207 16.9251 32.7119 0.00360418 0.0202831 -0.0111114 
59 1 47.6091 21.9685 33.7277 -0.0160636 0.00665528 0.00459028 
72 2 47.3766 22.8638 33.0659 -0.069076 0.0378538 -0.00325341 
56 1 47.9382 21.5646 35.0431 -0.0375525 -0.00376954 -0.00631045 
39 1 50.9414 19.0468 35.8378 0.00151399 0.0135853 -0.0143851 
63 2 49.8585 18.3188 30.2922 0.0622128 -0.0138464 -0.066564 
536 2 39.7325 30.8178 33.8693 -0.014571 0.0117271 0.0118132 
67 2 47.977 21.4777 30.6405 0.0485659 -0.107231 0.0292116 
55 1 48.4577 21.0421 31.5884 -0.0134768 0.0342982 0.00301738 
46 1 48.5264 21.0172 33.0127 -0.000197161 -0.0100165 -0.0385146 
37 1 50.806 18.2651 34.6808 0.00665821 -0.0174283 0.0272779 
44 1 49.7062 18.1581 32.4259 -0.00327436 0.00235274 -0.00884395 
38 1 50.1543 19.0362 33.5316 0.0132391 0.0025901 -0.00732443 
42 1 49.2366 20.7472 35.0999 -0.00347127 0.00428915 0.00668334 
51 1 49.9137 18.9987 31.2091 -0.00942927 -0.0214219 0.0081175 
52 1 49.1452 20.0386 31.0544 0.00551932 -0.0182125 0.0185332 
40 1 49.1201 20.0781 33.876 0.0148872 0.00305613 -0.00872344 
527 1 42.31 28.4444 30.9733 -0.00677064 -0.00756991 -0.0136916 
524 1 41.4363 29.3478 31.7777 -0.00562809 0.0151996 -0.0182008 
508 1 41.8919 28.1094 33.9357 0.00740111 -0.00860684 -0.0132972 
522 1 44.9749 25.5004 35.752 0.00549063 -0.00646089 0.00119212 
534 2 43.2429 24.0127 34.9008 -0.071144 -0.10135 0.0627344 
525 1 44.1957 24.5925 34.6518 0.000280423 0.0146954 0.0174704 
515 1 44.0781 25.3143 33.4028 -0.00817414 -0.0497623 0.0093104 
526 1 43.9802 25.0573 31.9072 0.0150041 -0.00873538 0.000868547 
538 2 44.1367 23.992 32.0976 0.0548602 -0.0243469 0.00951186 
509 1 44.0038 26.6199 34.048 -0.0023741 0.0154441 -0.0132687 
528 1 42.9661 26.0436 31.4783 -0.00782706 -0.00479133 -0.0188073 
510 1 43.2511 27.615 33.2304 -0.00902305 -0.021409 -0.0129188 
516 1 43.2399 27.5556 31.7867 -0.0105158 -0.00103806 0.0172013 
507 1 44.1051 26.533 35.3431 0.0049764 0.0063635 0.0127003 
506 1 42.026 27.9665 35.376 -0.0170742 -0.0128352 -0.0212333 
514 1 41.0243 29.0054 33.3025 0.00956365 -0.00601501 -0.0160723 
523 1 40.1965 29.8561 34.1851 -0.00824612 0.0311848 0.0162535 
61 2 52.3263 15.4585 35.3961 -0.036324 0.0129945 0.0693771 
520 1 40.4544 29.9875 35.6418 -0.0235288 -0.0184079 -0.015119 
409 1 44.2526 12.9358 12.121 0.00370772 0.010492 -0.0210053 
423 2 44.6511 12.9631 13.1639 0.0224194 -0.0467907 -0.0253202 
41 1 50.3709 20.2869 35.9286 -0.00907629 0.01259 -0.0242486 
567 2 76.7918 7.07909 -8.47331 0.125752 -0.0395499 0.0628078 
204 1 63.0181 9.54417 -10.7624 0.0306276 -0.00516238 -0.0215614 
212 2 62.2677 9.00423 -9.7168 0.0409947 -0.0175005 -0.0502641 
202 1 63.7385 10.4288 -11.4223 0.00266191 -0.00672527 0.00513044 
532 2 70.3813 8.3075 -5.81173 0.043816 0.0768054 -0.0472806 
576 2 75.4267 12.2601 -1.67961 -0.0847352 0.0424469 0.00827801 
568 2 75.039 9.89397 -6.68778 -0.000735837 0.0171757 -0.0266661 
553 1 75.5492 7.72789 -6.45519 -0.00273665 -0.0136875 0.0126135 
565 2 75.707 7.39224 -5.34765 0.0113053 -0.0188607 0.0188221 
559 1 73.0193 8.56346 -6.9333 -0.0141586 0.0226847 0.0302818 
556 1 74.4916 8.87952 -6.84014 0.00453823 0.0233038 -0.022828 
571 2 72.9438 8.31036 -8.10765 0.0218519 0.0732342 -0.0577575 
555 1 76.2751 7.14055 -7.50005 -0.0306709 0.00802603 -0.00940002 
142 2 81.8568 -3.49014 -1.90893 0.0384769 -0.0298487 0.115756 
132 1 82.0417 -1.96823 -0.999248 -0.0060153 0.00384922 -0.0133785 
130 1 82.6326 -2.67015 -2.14546 -0.0174266 -0.0467651 0.0300238 
141 2 83.3078 -3.7031 -4.46323 -0.0446634 -0.00160027 0.0377621 
120 1 83.2279 -1.20074 -0.273653 0.0206773 -0.00789318 0.0145353 
566 2 66.2894 3.96437 -1.27438 -0.010054 0.0475995 0.017103 
549 1 66.7734 5.04223 -1.37226 0.0285673 0.0133093 0.0323077 
557 1 67.5097 6.04049 -1.38724 -0.00471611 0.0181696 0.00782424 
554 1 68.304 7.22738 -1.1772 -0.0127803 -0.0248083 0.0196845 
432 2 68.445 7.7253 -0.23776 -0.0934197 0.0867608 0.0826488 
542 1 71.2263 8.29326 -4.9156 0.0101292 -0.0128144 0.00952779 
547 1 69.7886 8.07535 -3.00755 -0.00801836 -0.000811402 -0.00795452 
548 1 68.6478 7.6723 -2.50307 0.008468 0.0335793 -0.0125133 
569 2 71.022 7.33991 -0.856282 0.0219867 -0.0252481 -0.0411944 
558 1 72.0155 7.27452 -1.29478 -0.00718948 0.0298884 -0.010544 
541 1 71.1539 8.23005 -3.45803 0.041854 -0.0115011 0.0312733 
550 1 72.2797 8.44864 -5.8379 0.00193393 -0.0182394 -0.0139348 
572 2 75.9246 9.79491 -3.58044 -0.0557669 0.0113362 0.0133222 
177 2 75.4517 8.43259 -2.27698 -0.055557 -0.00329006 -0.0230061 
552 1 74.2288 8.2878 -3.84555 0.0111447 0.0033579 0.0221162 
543 1 72.1672 7.21 -2.83513 -0.0216763 0.012771 0.0118858 
563 1 75.3701 8.88034 -3.28529 0.00583435 0.0238889 0.0254466 
561 1 72.7891 8.42548 -1.12003 0.0307525 0.032182 0.000842237 
546 1 73.3149 9.55498 -1.27694 0.00339283 -0.000656183 0.0310667 
560 1 73.3466 6.99805 -3.69657 -0.000987315 -0.00344201 -0.0118483 
544 1 73.9134 10.6147 -1.62067 -0.0216341 -0.0164773 -0.00433532 
562 1 74.5861 11.7654 -2.0889 0.0283061 -0.00215928 0.0255258 
143 2 81.86 -0.527335 1.34958 -0.126311 0.00502595 0.0197777 