ITEM: TIMESTEP
460000
ITEM: NUMBER OF ATOMS
576
ITEM: BOX BOUNDS pp pp pp
-1.2000000000000000e+01 8.4000000000000000e+01
-1.2000000000000000e+01 3.6000000000000000e+01
-1.2000000000000000e+01 3.6000000000000000e+01
ITEM: ATOMS id type x y z vx vy vz 
395 2 1.34509 -10.6877 -0.718603 0.0605689 0.0904358 0.0117467 
390 2 4.70506 -6.20992 -0.7545 0.0607959 0.0158023 0.0109501 
382 1 4.43453 -7.02351 -0.164836 0.00869002 -0.0100443 0.0181315 
384 1 3.24163 -8.01747 -0.380156 -0.00185938 0.00757078 0.0111494 
396 2 2.53451 -7.7811 -1.20815 0.106623 0.0255835 0.0300814 
392 2 -0.295712 -10.8668 1.20419 -0.056652 -0.0180475 -0.0110207 
391 2 -0.409564 -8.83299 3.34615 0.0523497 -0.0870613 0.132979 
383 1 1.39185 -9.89803 0.0196676 -0.0120346 -0.0165037 -0.0188936 
372 1 2.78844 -9.10405 0.219429 0.00237571 0.0019642 -0.0114867 
371 1 5.01811 -7.57231 0.97257 0.00017922 0.0109252 0.0126128 
379 1 0.621337 -9.14885 3.65849 0.0239443 -0.00351508 0.0130864 
380 1 0.694613 -10.1461 1.28012 -0.0355147 -0.020848 0.017924 
365 1 4.71105 -8.7743 2.13699 0.0333783 0.00190194 0.00807832 
366 1 3.45782 -9.41378 1.57003 -0.00989744 -0.0123101 -0.0287468 
370 1 1.32317 -10.0288 2.73177 -0.00439838 0.00247137 -0.0154081 
376 1 1.23991 -9.42631 5.02687 -0.016897 -0.0119081 -0.0029139 
364 1 2.80257 -9.88123 2.65867 -0.0249324 -0.0133784 -0.00630208 
363 1 5.22568 -9.01188 3.27757 0.00512338 0.00997441 0.00759624 
361 1 4.80689 -9.5645 4.46534 0.00930919 -0.0133027 0.0104159 
367 1 5.46506 -9.75607 5.53726 -0.0172556 0.00129457 0.0228138 
362 1 3.49671 -10.0393 4.03944 0.0132379 0.0095696 -0.0234429 
368 1 2.49047 -9.9383 5.14712 -0.0208518 0.00138446 0.0156386 
381 1 6.08428 -6.6004 1.42684 0.00386094 0.00566742 0.00487583 
378 1 6.78692 -7.43919 2.27379 0.0120183 0.00742965 -0.00375069 
374 1 6.83808 -9.06 5.55499 -0.003384 0.0054802 0.010241 
389 2 7.74602 -6.8007 5.35458 -0.0488861 -0.0233294 0.0162888 
377 1 7.08147 -7.80574 4.8825 -0.00168778 0.00939571 -0.0140242 
369 1 6.37533 -8.19264 3.56938 0.0415684 -0.0239686 0.00300476 
495 2 7.69835 -7.09098 2.70408 -0.00496105 0.0562427 -0.0552827 
393 2 6.38707 -6.2483 0.568718 -0.0600723 0.084161 -0.0274816 
387 2 2.51218 -11.5404 6.65367 -0.0325741 -0.073997 0.0967473 
375 1 3.26718 -10.8383 6.29744 0.0248764 0.0121108 0.0190632 
388 2 0.697033 -9.41014 6.03191 -0.04971 -0.0107799 0.035422 
385 2 5.44843 -10.2138 7.40454 0.0089342 0.0170452 -0.0431863 
373 1 4.63243 -10.4447 6.50965 -0.0133371 0.00201964 -0.00282441 
212 2 1.3316 -11.5361 8.22076 -0.0246375 0.0185176 0.0299697 
386 2 7.00193 -9.29126 6.78234 -0.0785797 -0.0986023 -0.0433001 
421 2 -9.04532 -8.551 22.2713 0.0268044 0.0781636 0.0897642 
233 1 1.12489 -6.31818 20.7405 -0.00460216 0.0130204 0.00776977 
230 1 1.65214 -7.56723 20.266 0.0206486 0.0088118 -0.0242405 
223 1 3.0778 -7.81639 20.8528 -0.0189539 -0.000261897 0.00762207 
217 1 3.71688 -6.31518 20.6308 -0.00725368 0.0216781 -0.000147603 
229 1 3.19086 -9.20711 20.2475 0.020619 -0.00109607 0.0141794 
241 2 2.38431 -10.0873 20.3385 -0.0741273 0.0685609 0.0764238 
242 2 1.17969 -8.50821 19.9145 0.0317961 0.00987309 -0.0152074 
231 1 4.57088 -9.20759 20.3774 0.00360159 -0.0269334 -0.00100033 
218 1 4.98241 -6.5684 20.3497 0.0110983 0.00198358 -0.0233024 
243 2 4.81244 -9.9949 20.182 -0.0362378 0.0284527 -0.0081337 
224 1 5.51964 -7.96964 20.3346 -0.0129729 0.0148379 0.0209411 
245 2 0.0951792 -6.42036 20.9501 -0.0425451 -0.0692134 -0.0720742 
235 1 7.83394 -6.99276 20.1758 -0.0090096 -0.0080129 -0.0210858 
232 1 6.79819 -8.02879 20.7035 -0.0146503 0.0156805 -0.0210005 
247 2 8.94549 -6.93512 20.3027 -0.0609106 -0.0154492 0.0214474 
244 2 7.26053 -8.98687 20.6287 0.0376773 -0.0258352 0.0550486 
225 1 1.84026 -4.97887 20.617 0.00590016 0.000641655 -0.0269677 
219 1 3.19468 -5.10074 20.1327 0.014874 0.0138203 0.0249072 
250 2 3.84696 -1.06931 20.4981 -0.0163175 -0.102625 0.0273832 
238 1 4.3353 -1.43817 19.697 0.00409754 0.00464429 -0.00645284 
221 1 4.01619 -3.91206 19.5405 -0.0217276 0.0171374 -0.0203451 
234 1 1.38774 -3.59068 20.825 -0.000407522 0.00561294 -0.000312442 
227 1 3.42751 -2.64624 19.7199 -0.00941767 0.0015452 -0.00345628 
246 2 0.889605 -3.24412 21.6225 0.0144781 -0.0664719 0.022974 
249 2 1.44262 -1.45407 20.1398 0.0362287 0.0129112 0.0391 
237 1 2.16154 -2.38915 20.2609 -0.00477361 -0.0097256 0.00269664 
240 1 5.75352 -2.03788 19.2282 -0.0152233 0.0155708 0.0358951 
222 1 5.27007 -4.47874 19.29 0.00699318 0.0264207 -0.0247309 
220 1 5.71601 -5.62073 19.6272 -0.00738682 -0.00356424 0.0237717 
248 2 8.19367 -2.92961 19.0641 -0.150971 0.0644928 -0.0313619 
226 1 7.11531 -5.90246 19.692 0.00253255 -0.0225665 0.0143967 
252 2 6.25021 -1.31823 18.5403 0.036651 0.0644339 0.0454707 
236 1 7.88321 -5.01504 19.3409 0.0067763 -0.00311915 0.00553398 
251 2 8.93751 -5.19407 19.0832 -0.0165163 0.0390404 0.00650957 
239 1 7.37575 -3.64042 18.9031 -0.00345035 0.00809697 0.0103522 
228 1 6.16162 -3.32621 19.0286 -0.00515264 0.00690968 -0.00277391 
459 2 -3.54988 11.1554 22.7817 0.103203 0.0339159 0.11436 
27 2 5.2698 -7.32668 29.7272 -0.0641551 -0.0445814 0.0136115 
28 2 6.05311 -10.5637 29.7948 -0.0608995 0.0962641 0.0508902 
463 2 -4.48971 10.5817 26.7827 0.0646226 -0.0165277 -0.0787282 
460 2 -5.16826 10.5181 25.0599 0.0174608 -0.0355955 -0.0284331 
448 1 -4.55281 11.3222 25.0618 -0.00332977 0.00303302 0.012667 
451 1 -4.78283 11.532 26.6778 0.00338981 -0.0139611 0.0147575 
15 1 5.91994 -7.37368 30.4969 0.0109239 -0.02714 0.0244274 
13 1 5.85021 -6.17558 31.1288 -0.0165759 0.0104876 0.00425947 
33 2 11.4943 -6.14492 35.3695 -0.0833786 -0.0116974 -0.0909423 
16 1 6.65998 -9.86735 30.4527 0.0160069 0.0133065 -0.0251617 
8 1 6.56284 -8.63985 30.7924 -0.00834844 0.013197 -0.0016091 
22 1 11.4023 -8.77063 34.6738 0.0068068 -0.0139964 -0.00700261 
12 1 9.53347 -10.4743 34.5979 -0.0233794 0.00891036 0.00305592 
1 1 7.39302 -7.18501 33.0391 0.0148824 0.0096275 -0.0141283 
2 1 7.39576 -8.45996 32.2062 -0.00278865 0.00340297 0.00968607 
6 1 9.0952 -9.33863 33.7227 -0.00184536 -0.0180788 -0.0241211 
4 1 7.78415 -9.56871 33.1002 -0.00341176 -0.00246126 0.00571686 
19 1 7.16498 -11.0463 31.3288 -0.00439977 -0.0027598 -0.021944 
5 1 9.18812 -7.87178 34.1458 0.003109 -0.0195556 -0.0162683 
10 1 7.08861 -10.9364 32.6192 0.010727 -0.00282438 0.000459248 
20 1 7.69035 -11.8057 33.6117 0.0197316 0.00716592 -0.0218066 
3 1 8.07545 -6.82469 34.187 0.00339438 0.00375314 0.0390549 
11 1 10.405 -7.58945 34.5385 0.0107408 -0.00733386 0.00981788 
23 1 9.00612 -11.7397 34.2405 0.0229081 0.00700906 -9.312e-05 
7 1 6.67835 -6.24002 32.1403 -0.0139685 -0.0020126 -0.00419532 
24 1 10.8994 -10.1418 35.0783 -0.0371032 0.00599652 -0.015047 
21 1 10.5393 -6.21489 35.2348 0.0345896 -0.0146684 0.0248885 
36 2 11.6457 -10.6214 35.7192 -0.0223196 -0.0908347 0.0653834 
25 2 5.48178 -4.83932 30.6812 -0.0129784 0.0656635 -0.113379 
26 2 6.44792 -3.84693 31.7498 0.0664094 0.0362895 -0.119557 
30 2 10.1525 -3.99179 34.7631 0.0678881 0.00505208 -0.0409925 
18 1 9.83307 -5.03959 34.7719 0.00635165 -0.00545913 -0.00212019 
14 1 6.80653 -4.66191 32.4831 0.00792157 -0.00637511 -0.0260629 
29 2 7.97102 -3.46797 34.1632 -0.0830586 -0.0925815 0.0312503 
17 1 7.54604 -4.41813 33.7804 0.0292007 0.010027 -0.0141802 
9 1 8.42852 -5.4756 34.4662 -0.0381711 -0.0132289 0.0208408 
282 2 -3.02096 20.0087 -8.71302 0.0357769 0.0221994 -0.0352055 
135 2 -3.54066 20.7318 -8.97787 -0.0301958 -0.0389957 0.00408477 
105 2 6.26241 31.4137 -3.53603 0.0613933 0.0272741 -0.0251591 
198 1 4.16036 29.4069 11.5143 0.0121259 -0.00861949 -0.000432128 
201 1 5.28249 29.2835 11.7466 0.0123407 0.0153062 -0.00450877 
197 1 1.76981 29.2051 11.7978 -0.00212558 0.00993969 0.0238039 
207 2 -3.08241 31.3324 10.9408 -0.0132073 0.0134812 0.00848399 
208 2 -3.03426 33.05 9.41227 0.089494 0.0706448 0.0497294 
195 1 -2.04547 31.6763 11.168 -0.0167938 -0.0143441 -0.00911172 
199 1 -1.22293 34.3661 9.20929 -0.0272295 -0.0210386 0.00345277 
196 1 -1.88749 33.3588 9.44993 -0.0256654 0.0221712 0.000323024 
211 2 -1.9635 35.1629 8.86816 -0.0223564 0.0924654 0.0704832 
188 1 -1.07771 32.1629 10.1414 -0.0222125 -0.000360615 0.00344293 
215 2 3.15808 34.7513 6.8374 0.0262049 -0.0468256 0.018489 
181 1 0.995155 31.4085 11.2408 -0.00535271 -0.0111152 -0.0186646 
184 1 0.899962 33.3523 9.51879 -0.00765019 0.0134259 -0.029182 
214 2 5.44176 32.5702 11.233 -0.0028275 0.0205725 -0.00219858 
191 1 4.53704 33.0259 10.7481 0.00218966 0.0137015 0.0186345 
203 1 2.31567 34.7454 7.61858 0.0175526 -0.00304237 0.0313528 
200 1 1.11501 35.407 8.01286 0.00461388 -0.0135592 -0.0055091 
189 1 2.87326 30.1239 11.3875 -0.00929156 0.000232214 0.00842634 
202 1 5.05573 34.4122 10.4021 0.00259218 0.0267561 0.0010523 
192 1 3.1933 34.5304 8.82891 0.0158381 -0.0282997 0.000143327 
204 1 4.42703 35.1648 9.30405 0.011509 0.0210529 0.00211723 
190 1 0.370264 34.4989 8.94271 -9.72651e-05 0.00308305 0.024225 
186 1 2.37747 33.5548 9.71005 -0.0309086 0.00583568 0.00784924 
182 1 0.22723 32.3032 10.2682 -0.00334698 0.020015 0.0249183 
183 1 2.30818 31.5217 11.0831 -0.0295876 -0.00944191 -0.0201611 
185 1 2.94379 32.6447 10.6888 0.00061639 -0.00656459 -0.00586433 
187 1 0.0453931 30.7119 11.9529 -0.00605561 -0.0113434 -0.0091434 
194 1 0.494169 29.4997 12.4533 0.00109747 -0.0170268 0.00761831 
206 2 0.368669 28.7703 13.1589 0.0274024 -0.00742301 0.120784 
209 2 1.89782 28.2169 12.4662 -0.00625523 0.000716714 -0.0144575 
213 2 6.24829 29.3536 12.2482 0.0755324 -0.0149231 0.0252098 
193 1 -1.36085 31.1261 12.3049 0.00145955 -0.00180408 -0.0147178 
205 2 -2.2272 30.7058 12.9653 -0.0284131 -0.119294 0.0757466 
457 2 -2.49616 12.9812 21.2247 0.105385 0.0751597 0.00867558 
446 1 -3.55009 15.0956 21.443 -0.00175477 0.0101848 -0.0179914 
458 2 -2.83753 14.6032 20.5335 0.00916988 -0.0161953 0.0340012 
445 1 -3.08877 13.1 22.1143 -0.0203565 -0.0162387 -0.0172367 
439 1 -3.91885 14.1976 22.538 -0.00939026 -0.0476986 -0.00654158 
461 2 -3.12183 17.0829 20.907 -0.0148782 -0.0547512 -0.016193 
449 1 -3.8645 16.51 21.5287 0.00984559 -0.0166647 -0.0256741 
441 1 -4.26541 16.8852 22.9187 0.0134475 -0.00834114 -0.0201148 
433 1 -4.24758 14.8313 23.8415 0.000770627 -0.0117089 -0.0138954 
447 1 -3.45969 12.2788 23.1804 -0.00275374 0.000979806 0.0080989 
450 1 -4.04429 18.1462 23.0449 0.0158047 -0.00919294 0.0202985 
462 2 -3.5865 18.5817 22.088 0.122657 0.00489269 0.0242327 
467 2 -7.12644 14.2539 28.6634 -0.10834 0.0188637 0.092862 
468 2 -6.03244 17.4394 28.7425 0.0140426 0.0213465 -0.0257888 
443 1 -4.98233 17.8525 25.637 -0.00723113 0.00303258 -0.014594 
437 1 -5.36669 16.6109 25.171 0.00348827 -0.00835533 -0.00814588 
444 1 -5.61712 15.5155 27.5184 -0.014145 0.0128164 -0.00898794 
440 1 -4.26249 12.5343 24.5026 0.000862798 7.95972e-05 -0.00607538 
434 1 -4.18422 13.888 24.9773 -0.000886522 0.0221063 -0.0306212 
442 1 -4.2641 12.9485 26.9553 0.0134501 -0.0207419 -0.0228769 
436 1 -4.73629 14.1204 26.0652 -0.0241837 0.00907822 -0.00592657 
438 1 -5.22619 15.4179 26.2455 0.0128634 -0.0125171 0.000121353 
435 1 -4.53759 16.2364 24.0458 -0.00277593 0.0161585 -0.00862881 
452 1 -5.00539 13.4894 28.2757 0.00209608 0.0122482 -0.00536159 
456 1 -5.76025 16.9829 27.8436 0.0128343 0.00723761 -0.0174464 
455 1 -5.98973 14.3873 28.6078 -0.000361523 -0.0268469 0.00397529 
464 2 -3.41831 13.2651 27.5321 -0.0385073 0.0254235 -0.0318085 
454 1 -5.32958 18.0523 26.9483 -0.0296018 0.00219378 0.0116353 
466 2 -5.00999 18.7199 27.7136 -0.0487445 0.0377862 -0.0581806 
465 2 -3.86177 19.5111 24.2701 0.051012 0.0265715 -0.0062672 
453 1 -4.17915 18.4566 24.4757 -0.0136029 0.00881021 0.00881893 
32 2 7.41695 35.1695 33.7195 0.0578487 -0.00966897 -0.0490376 
31 2 6.88035 35.9307 30.5856 -0.0510317 -0.0403164 0.0602472 
35 2 10.0618 35.8159 34.3039 0.00107651 -0.0722728 -0.036569 
572 2 29.1139 0.0844069 -9.5822 -0.0741427 -0.0465383 -0.0754446 
560 1 28.7838 1.16052 -9.26029 -0.0120417 0.0304937 0.0272607 
563 1 27.5697 1.17006 -8.91617 0.0204833 0.00293283 -0.00246765 
575 2 26.7715 0.44793 -9.42394 0.116015 -0.0234591 0.162268 
550 1 29.823 1.67512 -8.49553 -0.00671441 0.00437316 -0.0230709 
576 2 24.8662 2.31133 -9.34349 0.0433618 -0.00357683 0.0559472 
552 1 27.1599 2.45593 -8.52219 0.00931348 0.0265947 -0.00202428 
574 2 24.7446 4.57666 -9.00463 -0.0351544 0.00470746 -0.119996 
564 1 25.7952 2.89225 -8.89941 0.0117415 0.0230002 0.00448218 
546 1 28.1331 3.18093 -7.75782 -0.011284 -0.0253996 -0.0142955 
562 1 25.5926 4.08442 -8.48108 0.00684321 0.0197009 -0.00508148 
551 1 26.3569 5.05316 -7.5741 0.000421853 -0.0106538 0.0134887 
545 1 27.6551 4.63238 -7.70461 -0.022573 0.0359157 -0.00112277 
544 1 29.4644 2.69757 -7.7506 0.000148626 0.0151972 -0.00872793 
543 1 28.572 5.16258 -6.73613 0.0144496 -0.0240759 -0.0114376 
561 1 25.4644 5.76087 -6.5484 -0.0228854 -0.0115827 -0.00666853 
573 2 24.3409 5.75876 -6.66214 0.0156015 0.0492744 -0.0387151 
541 1 29.9532 4.48062 -6.38728 0.0307776 0.0194503 0.0104371 
571 2 31.4754 0.149931 -9.13222 0.00883381 -0.00800233 -0.00818611 
568 2 32.4097 0.481242 -7.27921 0.00820615 -0.00831129 0.0909754 
542 1 30.5085 3.12897 -6.91069 -0.0114913 0.00851047 0.0265509 
559 1 31.1995 1.21393 -8.53096 -0.00983193 0.0181158 -0.00300008 
548 1 31.5012 2.29014 -6.23185 -0.00870176 -0.0161426 0.00930149 
556 1 31.959 1.40974 -7.32633 -0.00214886 -0.00821461 -0.00335111 
136 2 18.5308 7.4533 -6.75764 0.0697524 0.0480263 0.0425526 
115 1 22.5865 8.88841 -6.79152 -0.000884505 0.0017464 0.0106463 
133 2 20.0502 8.44162 -8.56484 -0.0237396 -0.0576629 -0.00889677 
121 1 21.8061 8.54243 -7.88838 -0.0219495 0.0142658 -0.00786642 
123 1 20.5625 8.14851 -7.66368 -0.00937883 0.000516452 0.00266084 
122 1 23.8497 9.86316 -6.96998 0.0196485 0.012806 0.0232206 
134 2 23.8349 9.95331 -8.16382 -0.0884397 0.0548055 0.0340318 
413 1 29.9033 9.48649 -10.392 -0.00620475 -0.00620419 -0.0207387 
405 1 29.8454 9.74475 -11.8854 -0.0292698 -0.0153108 0.0296178 
425 2 28.9034 8.97604 -10.043 -0.0126424 0.0149858 0.0475163 
411 1 34.4148 10.1219 -9.90086 -0.021805 -0.00161116 0.0146192 
410 1 30.9002 8.65456 -9.87141 -0.0231414 0.0393749 0.00135821 
423 2 32.3556 9.51334 -8.19392 0.00457358 -0.0354129 -0.0189047 
403 1 32.2757 8.9442 -10.2488 -0.0151497 0.00386398 0.0149812 
422 2 30.9076 8.68446 -8.87812 0.00918242 0.0546063 0.0622639 
409 1 33.1611 9.50146 -9.16156 -0.0220211 0.000791336 0.00900083 
404 1 34.6168 10.4268 -11.2313 0.0107608 -8.39021e-06 0.0208356 
397 1 32.318 9.42022 -11.6314 -0.000909448 -0.0274863 0.0212084 
412 1 35.7535 11.2781 -11.8791 -0.00143903 -0.029618 -0.0273542 
398 1 33.4257 10.327 -11.9464 0.000916885 -0.0114906 -0.011033 
177 2 19.3484 5.50136 -3.94908 0.0597243 0.00428648 -0.0562346 
549 1 27.5523 5.96075 -5.69685 0.00242364 -0.00204527 0.0207199 
557 1 28.1741 5.35412 -4.52707 -0.00486282 0.0076811 0.0198223 
569 2 29.9909 2.78789 -5.06875 0.0956058 0.104199 -0.0364585 
554 1 29.004 4.55933 -3.93217 -0.00728723 -0.0193548 0.0199648 
547 1 29.8664 3.87615 -5.06262 -0.0144504 -0.00366628 0.00627255 
566 2 29.4331 4.61975 -2.73498 0.0837744 -0.0180434 0.03685 
567 2 31.9922 3.30376 -4.71029 -0.000440679 0.00587307 0.0225985 
555 1 32.6893 2.69383 -5.36392 -0.0271898 -0.0123531 0.0074179 
553 1 33.7683 2.02146 -5.48197 0.048048 0.00511217 -0.0102079 
565 2 34.7193 1.87794 -5.0764 -0.0370425 0.0365423 -0.0192151 
139 2 17.8326 6.78842 -4.39447 0.00807468 0.101399 0.0115123 
116 1 20.3321 7.65275 -5.9788 0.0236678 -1.68205e-05 -0.0106702 
140 2 18.1682 6.87121 -1.79725 -0.0275865 -0.0310889 0.0185367 
113 1 23.1357 7.88329 -3.23368 0.00621481 -0.0127166 0.00629537 
112 1 20.8508 7.86392 -3.60262 0.00143484 -0.00309168 -0.00951212 
124 1 19.0693 7.17804 -5.85128 0.00426121 0.0191492 -0.000139752 
130 1 23.5169 7.57919 -0.636653 -0.017778 -0.0198522 0.0324073 
128 1 19.1431 7.20799 -1.97902 0.0165253 0.00130841 -0.00827754 
131 1 19.9869 7.90407 -1.21863 0.0150391 0.0158224 -0.00439327 
119 1 23.9854 7.85994 -2.05769 0.00119209 0.00131103 -0.032702 
132 1 22.1232 7.76685 -0.430588 0.0279886 -0.0230509 0.013978 
120 1 21.2714 8.21213 -1.38879 -0.000541713 -0.0154395 -0.0324533 
127 1 18.8205 6.78108 -4.32288 -0.0257994 -0.00694373 0.00365143 
114 1 21.7324 7.81632 -2.50572 -0.000736448 -0.0122558 0.0268261 
109 1 22.2017 8.36725 -5.3521 -0.00781324 -0.00359638 -0.0143382 
110 1 21.11 7.59036 -5.07842 0.0244937 -0.0266434 0.00423354 
118 1 19.6109 7.34571 -3.29185 -0.00867249 0.00345447 0.00758876 
111 1 23.2355 8.78402 -4.33834 -0.00372852 -0.00216176 -0.0442798 
143 2 19.9367 8.04469 -0.273576 0.0598891 0.0133776 -0.0083276 
558 1 26.1342 6.53641 -5.78802 -0.00643434 0.00262414 0.00325098 
570 2 25.5864 7.01261 -5.11772 -0.000892151 0.0244849 -0.0109339 
117 1 24.5769 9.2403 -4.77299 -0.0160381 -0.00265484 0.0111809 
125 1 24.5779 10.3093 -5.85158 0.0110909 -0.00898303 -0.00539551 
137 2 24.9617 11.3222 -5.9798 0.091235 0.0502288 0.0522411 
138 2 26.6487 9.05681 -3.9159 -0.0403754 -0.0346378 0.0192882 
126 1 25.6277 8.84535 -3.66621 0.0257297 -0.0350868 0.00374831 
129 1 25.0779 8.9097 -2.40516 0.0165282 0.00518546 0.0161679 
141 2 25.821 8.87157 -1.65197 0.0373503 -0.0266794 -0.0306177 
144 2 21.5829 7.54624 0.539816 0.0618921 0.0742288 0.0892152 
142 2 24.1317 7.2032 0.256351 0.000861421 0.0563668 0.0446457 
106 2 28.4232 1.02085 15.6476 0.0491312 -0.0344435 -0.0210018 
96 1 28.3114 2.7684 16.5119 0.0249846 -0.00454919 -0.00324015 
84 1 27.1541 3.34287 17.4237 -0.0118382 0.0390359 0.000253722 
95 1 27.0189 4.7814 17.5426 -0.0300074 0.0156281 -0.00468645 
107 2 27.8688 5.07097 16.648 -0.0601112 -0.060512 0.0295405 
94 1 28.6975 1.39712 16.6961 0.0224209 0.00524742 -0.000360122 
83 1 28.7005 0.539561 17.9903 -0.00968171 0.0403258 0.00936124 
86 1 25.6019 -1.10992 21.9137 0.00359779 0.0186202 0.00827497 
89 1 26.9727 -1.22159 21.7331 0.0209773 0.0194601 0.00081823 
81 1 27.7495 -0.755445 20.429 -0.00634487 0.0152426 0.00169041 
101 2 27.5543 -2.36482 21.3674 0.0368554 0.0979539 -0.0524029 
98 2 24.8735 -1.45248 22.5733 0.120763 0.10135 -0.0324491 
93 1 29.6871 -0.620477 18.469 -0.0156135 0.00214006 0.00856288 
90 1 29.0548 -1.15028 19.663 -0.0291569 -0.0138594 -0.0345291 
102 2 29.2194 -2.03561 20.4371 -0.114667 0.0298688 -0.0916672 
97 2 23.286 0.0382748 22.7426 -0.116946 -0.00709916 0.00991196 
99 2 22.8088 2.63772 22.581 -0.0298952 0.0347661 0.0493453 
103 2 23.7486 5.45482 19.021 -0.0423258 -0.00821192 -0.0294002 
100 2 22.5534 3.77216 20.9838 -0.00859522 -0.0126705 0.0150159 
87 1 23.7305 2.13778 22.4392 -0.00410014 -0.00455921 0.0206194 
88 1 23.6999 3.73641 20.6535 0.0203482 -0.000381378 0.0244414 
92 1 25.971 5.27968 18.309 0.0115519 0.0185599 0.0106073 
79 1 25.3412 0.295085 21.8642 -0.0237024 0.00431352 0.0101148 
73 1 26.0346 0.95498 20.8912 0.00882231 -0.00571745 -0.00372106 
77 1 27.4052 0.99634 18.5903 0.00183851 -0.00321559 0.00648693 
75 1 26.9311 0.356695 19.9175 -0.0284297 -0.0205022 -0.000721395 
85 1 24.1122 0.82256 22.6515 -0.0441768 -0.00714544 -0.00381337 
82 1 25.285 4.26613 19.1512 0.0137264 -0.000392037 -0.00466986 
91 1 24.0645 4.58854 19.5816 -0.0149731 -0.0109865 0.0183277 
78 1 26.9156 2.60557 18.544 -0.0197547 0.018851 -0.00929317 
76 1 26.2481 3.28904 19.6196 0.000311672 0.00963229 0.00377252 
80 1 24.4566 2.60726 21.2344 0.00654512 0.0156302 0.00682215 
74 1 25.7671 2.13268 20.4302 -0.00943309 -0.000619714 -0.022994 
104 2 25.3773 6.12821 18.0256 0.00192426 0.0436545 -0.0600669 
394 2 23.0218 -9.78302 28.5663 -0.01003 -0.0206559 0.00887859 
432 2 32.3387 9.42501 29.3025 0.00997265 -0.0306778 0.0758386 
34 2 12.3588 -8.41796 35.1748 -0.0426236 0.0879344 0.0594222 
417 1 28.9477 9.81759 33.9194 -0.00936139 -0.0073447 -0.0101802 
426 2 27.6657 9.84733 35.8816 0.00454641 -0.0529441 -0.0485255 
414 1 28.6351 9.80277 35.1318 -0.000655777 -0.000206058 -0.0264112 
407 1 30.256 10.0168 33.4093 0.0017866 -0.0137894 0.0021547 
402 1 32.4594 10.773 33.6224 -0.0142266 0.0138629 0.00252504 
400 1 33.7207 10.8143 34.549 0.00574223 -0.00916079 0.00446806 
429 2 30.2062 10.1177 32.3603 0.16253 -0.0219343 -0.0458915 
399 1 31.2289 9.96651 35.6938 -0.0157829 0.00525556 0.0155649 
418 1 31.604 9.29104 30.411 -0.00280163 0.0199067 -0.00635066 
406 1 34.8588 11.6027 34.1826 0.00501758 -0.0247858 0.000852388 
401 1 31.3774 10.1747 34.1989 0.00953486 -0.0110223 -0.0219009 
430 2 31.5676 8.22693 30.265 -0.019539 0.0785418 0.0147053 
420 1 32.1307 10.3662 31.1976 0.0110837 0.0147527 0.00931579 
408 1 32.554 11.3124 32.201 -0.0169225 0.00444572 -0.0154547 
487 1 28.6189 31.8431 -7.73683 -0.00715536 0.0363062 0.0245022 
478 1 29.6887 32.8069 -7.39583 -0.00852387 -0.00369599 0.00807413 
499 2 28.4293 32.056 -8.89638 0.0824519 -0.0204698 0.000840386 
496 2 26.6168 30.9791 -7.51643 0.11932 0.0260289 0.0182404 
484 1 27.4063 31.64 -7.02443 0.0119187 -0.00454605 -0.0230612 
503 2 30.2989 33.1655 -8.15298 0.0340093 0.0208357 0.0739231 
472 1 30.0866 32.9016 -6.05659 0.0335691 0.00150135 -0.0221614 
108 2 28.6299 31.835 -1.04394 -0.0574578 -0.0100834 -0.0440046 
476 1 27.8578 31.7831 -5.52677 -0.0132543 -0.0195432 -0.0166831 
470 1 28.9772 32.7577 -5.15461 -0.00881711 0.0318975 -0.0176548 
483 1 27.7062 30.8115 -4.57232 0.00687587 0.0195018 0.0061272 
481 1 27.4967 31.3314 -3.29145 -0.0183418 -0.00297604 0.0149654 
493 2 27.1945 30.8292 -2.1663 -0.0444598 -0.032163 -0.0269731 
469 1 29.4449 33.0036 -3.84041 0.018934 -0.000834542 0.010496 
475 1 28.4711 32.3915 -2.961 0.0208342 -0.0179591 -0.00130153 
485 1 29.8672 33.155 -0.917959 0.00356672 -0.0189636 -0.0267359 
482 1 28.7552 32.7117 -1.61957 -0.00715466 0.0061191 -0.000632373 
474 1 32.5743 32.9307 -5.98118 -7.06518e-05 0.0211276 0.0148678 
486 1 33.6903 30.9562 -1.0414 -0.0161016 0.0152512 0.00711239 
489 1 33.334 30.8761 -2.2468 -0.0168145 0.0248148 -0.016269 
492 1 33.187 31.4665 -3.43158 -0.00445182 0.0064809 0.00377419 
471 1 30.6107 33.5546 -3.1782 -0.00229967 -5.09867e-05 -0.0167729 
502 2 33.1879 32.5678 -3.95376 -0.0205345 -0.00152054 -0.0378694 
490 1 33.1884 30.5894 -4.91543 -0.00204164 0.00861462 -0.0276647 
480 1 33.0511 31.467 -5.9909 0.0394489 -0.013471 0.011255 
497 2 31.6 35.0722 -4.8124 -0.0484603 -0.0353484 -0.0363429 
479 1 31.3921 34.1602 -4.18922 -0.0118637 0.0136582 0.0127594 
473 1 31.2898 33.4392 -5.53285 -0.0114242 0.00154154 -0.0178724 
477 1 30.8297 33.5688 -1.87662 -0.00286975 0.00782826 -0.0337116 
501 2 32.4624 35.1849 -2.62153 0.0449707 0.050017 0.0455516 
488 1 32.0103 34.437 -1.6733 -0.00275648 -0.00835972 0.0205328 
491 1 32.7805 34.4582 -0.526565 0.0147269 0.0204206 0.0246264 
498 2 33.5286 35.1694 -0.315026 0.0104111 -0.0421233 -0.0875599 
500 2 32.6996 33.8878 0.349761 -0.000230583 -0.0796687 -0.00201343 
494 2 30.0781 33.3176 0.115936 -0.0232661 0.00949088 0.0121556 
210 2 35.5527 33.7254 9.70123 0.0014126 0.0100417 0.0473438 
532 2 35.9968 17.7582 22.2122 -0.0200323 0.0674457 -0.0196866 
416 1 34.4948 12.4247 32.9932 -0.0193903 0.00658637 -0.0192894 
428 2 35.3405 12.9778 32.4699 0.0515882 -0.0307169 0.0284955 
419 1 33.6399 12.1781 31.9623 -0.0220545 -0.0139182 -0.0112152 
431 2 33.7348 12.398 30.9791 -0.00432903 0.0634154 0.0160112 
286 2 53.4278 -8.3805 -6.88446 -0.0994028 0.038279 0.0132609 
288 2 51.0345 -7.10537 -6.51554 -0.00736952 -0.047128 0.0779454 
61 2 46.0271 -0.787293 -9.97404 -0.0671838 0.00318221 -0.0149911 
63 2 48.2783 -0.946386 -11.0688 0.0124193 -0.0664231 -0.086581 
51 1 48.0593 -0.209553 -10.3375 -0.0220274 0.0158801 -0.0196864 
53 1 44.7187 2.66871 -8.7548 -0.0140593 0.0140625 0.0168577 
37 1 46.9836 2.40549 -10.8894 0.00873604 0.0118005 -0.0181644 
49 1 46.8262 0.0579263 -10.0112 -0.0104572 -0.021396 0.000271494 
43 1 46.7797 1.57744 -9.72517 -0.00206497 -0.0281267 -0.0205542 
50 1 45.2916 1.43751 -8.93162 0.0233655 0.0194221 0.00469638 
62 2 44.6849 0.572902 -8.39017 -0.0574703 0.0267329 0.0225143 
39 1 46.8702 3.64083 -10.2322 0.0103828 0.00370905 -0.0144286 
65 2 43.8297 3.07021 -8.26025 -0.0279142 0.0103707 0.0474826 
45 1 45.5131 3.74757 -9.51399 0.0107694 0.0187525 0.0204596 
54 1 45.1132 4.96126 -9.00565 0.00459978 -0.0324744 -0.00745373 
41 1 47.4835 4.80953 -10.7916 0.0373003 -0.014474 -0.0142281 
69 2 44.5014 5.20136 -8.23878 -0.0656255 0.00253088 -0.0114913 
64 2 50.8941 0.169861 -9.48716 -0.0416175 0.0919899 0.0029158 
46 1 50.6238 3.26571 -11.2378 0.0125734 0.0155562 0.00420157 
38 1 48.4453 2.25497 -11.2741 -0.00016416 0.012794 -0.0200262 
44 1 49.0316 0.852303 -10.9033 0.0311539 0.00102875 0.0291658 
55 1 51.1705 1.8155 -10.8327 0.00227795 -0.00144312 -0.00486827 
40 1 49.2415 3.58476 -11.296 -0.00833503 0.0328291 0.0042813 
52 1 50.3234 0.765228 -10.4305 -0.00254582 -0.0142632 -0.0044888 
42 1 48.7723 5.05445 -11.4492 -0.0195759 0.020459 0.0151001 
67 2 52.2219 2.24729 -10.5092 -0.0570683 0.0537839 0.0710009 
59 1 51.2961 4.45867 -11.4029 0.0181832 -0.0101509 0.0108958 
68 2 52.2565 3.93652 -11.5881 0.017638 -0.0196969 0.0271913 
424 2 36.2006 11.2478 -10.9805 0.0203958 0.00208371 0.0697113 
47 1 46.5111 6.09564 -10.8019 -0.0126088 0.00110231 0.0243768 
57 1 46.1575 6.00795 -9.38397 0.0150865 -0.0377055 0.0137265 
66 2 46.4529 6.47572 -8.44267 -0.0582313 -0.115278 -0.0179122 
48 1 49.3278 6.27243 -11.9276 0.00999287 0.0188784 -0.0205694 
276 1 51.8042 -7.20121 -5.63449 0.0128047 -0.0174887 0.00212482 
274 1 53.1339 -7.88685 -5.80953 0.0149786 0.00606154 -0.0306119 
263 1 53.7654 -8.51566 -4.49117 0.0147854 0.00698507 0.00847505 
257 1 53.494 -7.98516 -3.08516 -0.00532042 -0.0121127 0.0228149 
255 1 53.6903 -8.91567 -2.021 -0.00479362 0.00692414 -0.00643572 
253 1 53.0573 -8.36164 -0.65235 -0.00318755 -0.0166026 0.00599214 
258 1 52.3797 -6.95785 -3.06784 -0.038133 -0.0286812 -0.0136655 
254 1 52.4372 -7.22526 -0.522879 -0.0124949 -0.0265472 0.0016913 
256 1 52.0409 -6.38882 -1.7086 0.0315563 0.0103846 0.00363289 
264 1 51.7186 -6.38878 -4.25905 -0.0164942 -0.0066622 0.0441159 
273 1 54.1381 -9.94564 -4.36628 0.0257645 0.0105757 0.0146263 
261 1 54.5486 -9.90852 -1.74876 -0.00745999 -0.0260012 -0.003552 
270 1 55.0262 -10.219 -3.17586 0.0127581 -0.0279526 -0.0054624 
269 1 54.853 -10.7405 -0.618561 0.00329668 -0.00605664 0.00266704 
285 2 54.7359 -10.2612 -5.21475 -0.0254796 0.00893096 -0.0751853 
281 2 55.3746 -11.7975 -0.445726 0.0684191 0.021277 0.0134211 
287 2 51.13 -4.9695 -5.26421 -0.0292719 -0.0446006 -0.0445131 
284 2 49.8418 -3.89793 -2.65451 0.00134203 0.0480341 -0.156783 
283 2 49.8119 -4.19782 -0.758899 -0.163365 0.0437904 0.0147638 
272 1 50.6847 -4.45087 -2.93022 0.0226066 -0.00854505 -0.00471169 
275 1 50.7781 -5.26676 -4.18529 0.028647 -0.000544528 -0.00664401 
271 1 50.6844 -4.65842 -0.253419 0.00280499 -0.00475985 0.0281304 
262 1 51.1986 -5.21838 -1.69116 -0.0218284 0.0180485 0.0190136 
277 2 52.1376 -9.26335 2.55238 -0.0189851 0.0277696 -0.0139258 
279 2 51.3013 -7.38761 2.96165 -0.00630787 0.0754952 0.0203889 
267 1 51.575 -7.75244 1.77993 0.00457473 0.0224955 -0.018916 
265 1 52.0861 -8.90953 1.44478 0.0078946 -0.0226024 0.0259304 
259 1 52.9459 -9.10185 0.344093 0.018443 -0.00616548 -0.0126295 
260 1 51.7177 -6.81731 0.712305 0.0107576 -0.00297931 0.00226 
278 2 53.8636 -11.2346 0.980784 -0.0109906 0.075514 0.00225623 
266 1 53.8137 -10.4192 0.322803 -0.0298817 0.00309907 -0.0408188 
280 2 50.3625 -5.18329 1.67139 0.0161677 0.0521108 -0.0394223 
268 1 50.8015 -5.61986 0.763202 -0.00717869 0.00542881 0.0157648 
170 2 53.1282 11.3188 27.7053 -0.0874276 0.0342394 0.0886563 
171 2 54.3955 11.3474 25.6518 -0.0121133 0.0603727 0.00282249 
56 1 50.6994 5.65999 35.8272 -0.0348011 0.0303757 -0.00992089 
427 2 37.2575 11.4847 34.469 -0.0859714 0.0409061 0.043293 
415 1 36.2566 11.4326 34.8382 -0.00194229 0.00128632 -0.0157355 
58 1 46.7999 6.87145 35.9854 0.0036418 0.00116668 0.0148567 
60 1 48.0793 6.79352 35.2043 0.0056513 0.0187973 0.00846701 
70 2 48.6076 7.43314 34.4192 0.0204757 -0.0611078 0.0611616 
72 2 51.3076 6.44981 35.1188 -0.0311219 -0.0730203 0.00278641 
540 2 55.9646 32.103 -8.31711 0.080169 0.0977819 -0.0644835 
537 2 56.4876 32.0281 -8.87506 0.000681014 0.00346069 -0.0193774 
521 1 37.1674 22.5653 17.8815 0.00166405 0.00174394 0.00148327 
518 1 37.4036 21.2845 17.318 -0.00139401 -0.0132578 0.041133 
533 2 36.8067 23.4672 17.2134 -0.0765783 0.0601963 0.0641479 
530 2 36.7316 20.8379 16.5846 -0.0317464 -0.0582288 0.0105827 
534 2 39.3025 23.9547 17.8083 -0.0248238 -0.0512961 0.115725 
529 2 37.061 18.7569 17.4951 0.0451141 -0.0808299 0.0538028 
531 2 36.4255 17.4843 20.218 0.0752484 -0.00923901 0.0156749 
172 2 56.4315 15.1883 23.8913 -0.0565813 0.042775 0.0239253 
163 1 55.6527 17.5104 23.9164 0.0130957 -0.0100548 0.0128863 
523 1 37.7699 18.5595 23.2712 0.00119512 0.0036072 0.0112257 
520 1 36.8761 18.4813 22.0944 0.00481762 0.0181937 -0.0209449 
516 1 39.3297 22.5129 23.6301 0.0228711 -0.00728348 0.00679963 
528 1 40.3839 23.694 23.3401 0.00759266 0.0212097 -0.0242451 
515 1 40.0655 23.936 21.1408 0.00205457 -0.00246792 0.0059703 
509 1 39.5099 22.4472 21.066 0.000912724 0.0180874 0.00439369 
510 1 39.3841 21.8523 22.3077 -0.00653239 -0.00843304 0.00332795 
508 1 38.543 20.669 22.1802 0.022715 0.0126268 -0.00522936 
507 1 38.8006 21.8729 20.0452 -0.0135523 -0.0208789 0.00102774 
513 1 38.1147 22.7849 18.9767 0.0205476 0.00489968 -0.0251076 
514 1 38.5597 19.8907 23.2976 0.000676836 0.0020584 0.0031273 
505 1 38.0936 20.74 19.6392 0.0338293 0.0083826 0.0123001 
506 1 37.8263 20.2724 21.006 -0.00537877 -0.00547498 0.00963919 
511 1 37.5369 20.2915 18.363 -0.000187235 0.0141032 0.00488706 
512 1 37.2369 18.9405 20.6451 0.0218606 0.00611646 -0.00560127 
522 1 39.3228 23.6499 18.8068 0.0167642 -0.0105141 0.00224962 
519 1 36.3819 18.5209 19.7109 0.00740595 -0.00454754 0.0134746 
517 1 36.7696 19.0831 18.3162 0.00904227 -0.0337046 -0.0212614 
175 2 55.1527 18.1561 22.9992 0.03752 0.0597834 0.0241373 
526 1 40.6547 24.6127 22.3776 0.0194104 0.0155376 0.0110785 
525 1 39.6217 24.3765 19.9354 0.00786128 0.00399543 -0.0078095 
538 2 41.1191 25.5576 22.4926 0.039366 0.0282348 -0.0426251 
173 2 51.6033 12.5679 29.4822 -0.0327032 -0.0537234 -0.0219246 