ITEM: TIMESTEP
1130000
ITEM: NUMBER OF ATOMS
576
ITEM: BOX BOUNDS pp pp pp
-1.2000000000000000e+01 8.4000000000000000e+01
-1.2000000000000000e+01 3.6000000000000000e+01
-1.2000000000000000e+01 3.6000000000000000e+01
ITEM: ATOMS id type x y z vx vy vz 
370 1 4.46184 -10.2613 -7.38923 0.00436865 -0.00466183 0.00697721 
462 2 4.07251 10.7981 2.47363 0.0540355 -0.0197027 -0.0364064 
380 1 3.89745 -11.4236 -6.66827 0.000968728 0.00479176 0.0250198 
379 1 3.58269 -9.41699 -8.29006 -0.0163578 -0.0236226 0.00881566 
364 1 5.94471 -9.83593 -7.5043 0.0152629 0.00419233 -0.0160841 
362 1 6.2799 -8.60493 -8.16295 0.0108497 0.0144244 0.00223336 
376 1 3.63643 -7.964 -8.41225 0.017249 0.00698341 0.0162667 
391 2 2.66585 -7.59014 -8.47155 -0.0271529 -0.047392 0.0150872 
368 1 5.09521 -7.89986 -8.59239 -0.00326738 0.00883349 0.00949537 
375 1 5.54008 -6.58629 -9.22333 0.0186119 -0.00233967 -0.0276845 
361 1 7.36189 -7.97864 -7.85653 0.00726908 0.0134284 -0.00265451 
363 1 8.44231 -8.55047 -6.80884 0.0261685 -0.00537991 -0.00868118 
369 1 9.56132 -7.88656 -6.49963 0.00021548 -0.0304029 -0.0205722 
377 1 9.90338 -6.79819 -7.63146 -0.00474994 -0.0118915 -0.0206083 
387 2 7.08113 -5.90147 -10.645 0.0383455 0.00221773 -0.0401046 
373 1 6.82779 -6.75016 -10.0418 0.00724035 -0.00130917 0.013378 
367 1 7.53025 -6.99624 -8.73066 0.00511639 -0.0277428 0.00451746 
386 2 9.48297 -5.64306 -9.26284 0.00995394 0.114494 -0.0702257 
374 1 8.89322 -6.30782 -8.51928 -0.0140247 -0.0119453 -0.0127555 
383 1 4.83908 -11.8047 -5.5616 -0.0169586 -0.0246232 -0.0138414 
372 1 6.05167 -11.0605 -5.13818 0.00307043 -0.00524102 -0.00305366 
366 1 6.62281 -10.3004 -6.3529 0.00755752 -0.0118446 0.0018565 
382 1 8.0858 -10.372 -3.49406 -0.00951361 0.00596356 -0.00488901 
384 1 6.74667 -10.6908 -3.68477 0.00535256 0.00933909 -0.00471127 
495 2 10.7673 -10.0842 -3.78659 -0.0672676 -0.0235038 -0.0363643 
381 1 9.95418 -9.42721 -4.29737 -0.00861649 0.00269365 0.027442 
371 1 8.49652 -9.61619 -4.6718 -0.0238462 -0.00199392 0.00419268 
365 1 7.88698 -9.47568 -5.90017 0.0100019 -0.00709174 -0.0119539 
378 1 10.3286 -8.56671 -5.44155 -0.00530427 -0.00194123 -0.0179457 
468 2 4.4874 10.8717 4.81526 0.00387944 0.0336833 0.00976746 
396 2 8.43969 -10.3355 -2.50372 0.0502199 0.0572012 -0.0218588 
395 2 2.88536 -11.3895 -6.32394 0.0308191 -0.0582917 -0.06543 
392 2 4.35543 -11.664 -4.54676 -0.0348088 -0.021717 0.0145501 
443 1 4.21329 11.8523 2.16921 0.00701664 -0.0310186 -0.0110365 
575 2 -6.59419 -8.22372 23.049 -0.0260013 0.0103774 0.0238836 
385 2 5.38456 -10.8166 18.7014 -0.0618392 -0.0162558 -0.0266019 
570 2 5.45507 -11.0598 17.9363 -0.0170265 -0.0419333 -0.0132068 
288 2 -7.74375 -2.82169 22.6939 -0.0393082 -0.0575421 -0.0485175 
286 2 -6.98385 -5.45225 22.3574 -0.025895 -0.0207376 -0.0161479 
281 2 -7.00732 -10.2155 27.5927 -0.0254656 0.02764 -0.0863735 
265 1 -9.7876 -7.11003 29.8269 -0.00526099 -0.0283546 0.0039451 
253 1 -8.96203 -6.70109 27.752 0.0133654 -0.0173396 -0.0026886 
259 1 -9.09375 -7.7809 28.7615 0.0169153 0.0145145 0.0204348 
269 1 -7.6339 -9.4563 27.4072 -0.0137209 0.0180584 -0.00616229 
266 1 -8.36531 -8.92945 28.5877 0.00372738 0.0073571 0.0222127 
255 1 -7.75846 -7.00959 26.7631 0.00876046 0.0161003 -0.0156504 
261 1 -7.26333 -8.35827 26.4707 -0.00771759 -0.00843207 0.00340436 
257 1 -7.88523 -6.19863 25.537 0.0062433 -0.00300788 0.00587494 
270 1 -6.71269 -8.6628 25.1949 -0.0200007 -0.0131483 -0.00591636 
267 1 -10.0558 -5.71652 29.6587 0.00640373 -0.0164182 0.00911986 
285 2 -6.47537 -9.69249 25.1074 0.06918 0.100697 0.0945033 
263 1 -7.24911 -6.5213 24.1483 -0.0267165 -0.000476392 -0.0184749 
273 1 -6.8797 -7.87603 23.9 0.0020849 0.006031 0.0230167 
277 2 -10.4194 -7.38161 30.598 0.0542896 -0.171947 0.0186076 
260 1 -9.65611 -4.66472 28.7472 -0.0025048 -0.0105624 0.00298286 
254 1 -8.86001 -5.29988 27.5555 -0.00779134 0.00924699 -0.00413735 
268 1 -10.0481 -3.04438 28.4938 0.0509067 0.0292287 0.0160962 
258 1 -8.13208 -4.98587 25.4986 0.0017965 -0.00319157 0.00640182 
264 1 -7.85213 -3.13143 23.7147 0.00805895 0.0334539 -0.026083 
275 1 -7.74686 -1.90844 24.4079 0.00762547 -0.00771243 -0.0232694 
256 1 -8.28807 -4.10403 26.7086 -0.00813266 0.0354588 -0.0420459 
262 1 -8.44829 -2.93303 26.7502 0.0050821 0.0127222 -0.00505519 
272 1 -8.08145 -2.49307 25.3786 0.0004245 0.0164988 -0.000270252 
276 1 -7.90334 -4.53269 24.0886 0.00151738 0.00637829 -0.0364756 
271 1 -9.23264 -2.26493 27.8236 -0.00571158 0.00809817 -0.0112158 
280 2 -9.36044 -1.26376 27.4425 -0.0209002 0.00742987 0.040337 
274 1 -7.25837 -5.43819 23.2581 -0.0115275 -0.00353394 0.00513658 
394 2 -7.68432 10.036 33.3818 0.103133 0.00639195 0.111992 
144 2 -6.98235 10.1464 33.8359 -0.0606508 -0.00385387 0.0028562 
279 2 -10.2722 -5.2524 30.7302 0.147601 0.0669883 -0.0206476 
467 2 6.30187 12.4342 6.48156 0.00559432 -0.00854768 -0.0155173 
64 2 -1.8918 32.5563 -2.56643 -0.0702282 -0.0533705 -0.0944665 
170 2 -1.26827 33.0033 -2.48498 0.0713718 -0.0250152 0.0280717 
80 1 11.964 24.6284 -4.81123 -0.00443951 -0.00897551 -0.023916 
85 1 11.7678 24.5872 -3.83105 0.0130493 0.00787406 -0.00381171 
100 2 11.7005 24.4042 -2.75262 -0.0265104 -0.00480113 0.0479713 
461 2 4.5006 13.0295 0.127122 0.00860764 -0.0573164 0.0423931 
452 1 7.02261 14.7327 6.2484 -0.018072 0.0126878 -0.0264742 
454 1 3.92256 12.6621 3.38223 0.0156399 0.0201319 -0.0122857 
436 1 5.78184 15.785 4.40296 0.0114927 0.00295237 0.0100089 
437 1 4.24336 14.1778 3.4252 -0.00633739 -0.0266905 -0.000249111 
455 1 6.186 13.5495 6.1643 -0.0282499 -0.00443793 -0.00653579 
450 1 3.56402 12.4259 0.955336 0.00270235 -0.00390829 0.0335544 
434 1 4.98997 16.833 3.64845 -0.00407645 -0.00787337 0.00467464 
438 1 5.19312 14.3858 4.48456 0.0162264 -0.0187305 0.00352146 
433 1 3.89981 16.5109 2.83033 0.0150744 0.00532006 -0.00351195 
441 1 2.45356 14.7719 1.77509 -0.0214917 -0.0239541 -0.00137688 
435 1 3.48675 15.1486 2.87247 0.0201945 -0.0306651 0.00145797 
453 1 2.59104 13.5798 1.011 0.0214842 0.00890277 -0.00911263 
456 1 4.44183 12.0544 4.49758 0.014286 0.0102448 -0.0169198 
465 2 1.78679 12.6174 1.23932 0.0566991 -0.0628521 -0.058666 
444 1 5.30958 13.1189 5.03733 0.0100205 -0.0126768 -0.0257006 
457 2 2.3796 17.7519 2.29225 -0.0651224 0.0411071 0.077197 
442 1 6.63752 15.9422 5.40698 -0.000535265 0.00918936 0.0156943 
451 1 6.83622 17.4509 5.68982 0.00526741 0.00908025 -0.00238947 
463 2 6.77242 17.8693 6.65275 -0.0312475 -0.0587339 0.0422306 
439 1 3.30305 17.815 2.46352 -0.0101029 0.00881769 -0.00720032 
445 1 3.99161 19.0236 2.1186 0.000289578 -0.00813164 0.00142828 
447 1 5.55315 18.9884 2.26553 -0.0280116 0.00372291 -0.0190864 
440 1 5.63592 17.9771 3.48714 -0.00958741 -0.0157314 -0.00741209 
448 1 6.94194 18.1431 4.26753 -0.00652789 -0.00964586 0.00694207 
460 2 8.00531 18.0345 3.87174 0.0500427 0.0607209 -0.00892048 
459 2 6.27329 19.5205 1.73303 0.00150516 0.0215467 0.0232104 
242 2 14.3879 -8.23422 9.14504 0.0268586 0.0337492 0.0515986 
233 1 15.5069 -8.07839 9.33584 -0.0146496 0.00205102 0.00455671 
230 1 16.0776 -9.58224 9.46136 -0.0259065 -0.00191876 0.000210116 
241 2 15.4493 -5.5524 9.7324 0.0459057 0.111024 0.0918175 
229 1 16.5062 -6.07704 9.81013 0.0150893 0.00755629 0.0270757 
223 1 16.6934 -7.44866 9.60961 0.00780861 0.0093668 0.00954934 
217 1 18.2596 -8.03835 9.79493 -0.00471413 0.00741815 0.0153514 
225 1 17.2468 -10.3231 9.41648 0.00419124 0.0393537 0.0189715 
224 1 18.8075 -5.83613 11.0381 0.00191633 -0.00494244 0.00724896 
226 1 21.3214 -6.4419 11.0296 0.00708226 -0.00475599 0.0108096 
218 1 19.0339 -7.21205 10.6527 -0.0104041 0.0264196 0.00563106 
220 1 20.3342 -7.42287 10.4486 -0.0124307 -0.0207549 0.010908 
221 1 20.0261 -9.61278 9.24735 0.0265089 -0.0126754 -0.0027844 
219 1 18.5377 -9.33321 9.2423 0.0261246 0.0111204 0.0371118 
222 1 20.8134 -8.79099 9.99946 0.0137487 0.0109131 -0.0135527 
228 1 22.1234 -9.11764 10.0549 0.0200349 0.0258499 0.0306096 
239 1 22.2848 -7.29898 11.657 0.0130369 -0.00672963 0.00811692 
240 1 22.9077 -9.97617 9.08798 0.0110009 0.00702476 -0.028155 
236 1 22.9962 -8.15946 10.6537 0.00566875 0.024532 -0.00526747 
227 1 20.6556 -10.732 8.3483 -0.00392055 -0.0243996 -0.0240136 
238 1 22.1399 -10.602 8.20793 -0.00194805 -0.0150701 -0.013621 
252 2 23.965 -9.66922 8.86219 -0.0350438 0.0658457 0.0191619 
388 2 24.091 -8.58591 10.709 -0.0298697 0.00293431 -0.000151204 
231 1 17.5288 -5.52306 10.5965 -0.022071 0.020003 -0.000630192 
243 2 17.2572 -4.5643 10.8786 0.020683 -0.0538439 -0.0778482 
237 1 19.718 -11.6262 7.56781 -0.0073641 0.00349931 -0.0100332 
232 1 19.4776 -4.8044 11.7542 0.0120408 -0.0147161 -0.00653145 
357 2 22.1627 -11.5519 7.65981 -0.0512246 0.0409375 -0.000995863 
247 2 21.4308 -4.85669 11.8174 -0.026337 -0.0724284 -0.0255838 
354 2 20.9007 11.7477 27.3327 -0.0170901 -0.0542107 -0.0539336 
244 2 19.0111 -4.23726 12.4109 -0.0292786 0.0210051 0.00457526 
337 1 22.3666 6.07079 29.511 -0.00763608 -0.0165436 0.0345975 
350 2 23.9343 7.96205 28.1186 -0.0130917 -0.0112911 -0.0680087 
353 2 21.3694 8.85279 27.1494 0.00982336 0.0518244 -0.0181376 
338 1 22.8203 8.13663 28.4529 0.0192547 -0.0253462 -0.00707907 
341 1 21.9107 9.15711 27.9485 -0.000324205 0.00403375 -0.00296831 
333 1 21.162 10.0709 28.9239 -0.00620617 0.0163125 -0.00318702 
331 1 22.2232 7.54117 29.653 0.0258792 0.00507314 0.000180129 
327 1 21.3877 9.72626 30.2889 -0.00234998 -0.00504074 0.0213071 
342 1 20.6343 11.3109 28.3588 0.012264 0.0140206 -0.00492818 
329 1 20.8787 10.5115 31.3182 -0.0014067 0.0251687 -0.00231303 
349 2 22.7559 5.6406 28.6059 -0.116034 0.0256727 0.0653629 
339 1 21.803 5.30707 30.4146 -0.0265494 0.00771997 -0.0204135 
351 2 21.3754 4.3394 31.0396 0.0313902 0.0081842 0.0560558 
340 1 21.5793 6.03844 33.1542 0.00961715 -0.00761586 -0.00381724 
68 2 19.8822 6.07661 34.8869 0.00341027 -0.00174635 0.0478363 
347 1 19.8174 10.0472 34.6212 -0.0049554 0.0213903 -0.00896578 
336 1 19.9673 10.721 33.3371 -0.0186702 0.00924946 0.0383203 
335 1 20.2472 11.57 30.7757 0.00301289 0.0045307 0.00222397 
325 1 21.6312 8.4611 30.63 -0.00975543 0.0123506 0.0197824 
328 1 20.5858 8.48677 32.6689 0.0196947 -0.0108096 0.0242937 
359 2 19.3421 10.7265 35.2498 0.0140985 0.0096036 -0.0136911 
344 1 20.0734 8.7884 34.7801 -0.0283712 0.0167589 -0.0180909 
334 1 20.148 7.7867 33.9759 0.00601998 -0.0251527 -0.0111483 
343 1 20.3166 6.38275 33.8326 -0.0161759 -0.00864654 -0.00265512 
330 1 20.6122 9.78615 32.4111 -0.00219415 0.00891784 0.00243912 
332 1 21.4256 6.07185 31.6581 -0.0115435 0.00305877 0.00381017 
326 1 21.0986 7.55642 31.636 0.0104254 -0.0245478 -0.00622192 
235 1 20.6788 -5.54608 12.2048 0.00210036 0.0153548 -0.0121558 
251 2 22.8291 -7.43072 12.6349 -0.0278654 -0.0283227 -3.33823e-05 
356 2 19.7525 8.70854 35.9265 -0.00291474 -0.0175391 0.0453121 
108 2 14.1521 25.3136 -6.06946 0.0711233 0.0109315 0.0685991 
352 2 17.065 23.2487 0.940851 0.062552 0.0180711 -0.0204311 
574 2 17.9207 23.6475 1.21866 0.0386446 0.0548036 0.0173364 
99 2 13.9455 23.8047 -7.56494 0.0527107 -0.111802 0.0598402 
318 2 19.6158 31.2555 5.64233 0.109999 -0.0459699 -0.033066 
389 2 19.9701 30.45 5.15456 0.0919099 0.00814808 -0.0612122 
249 2 18.5289 35.1895 6.4364 -0.0161761 0.0887672 -0.0492141 
234 1 18.7096 35.7028 7.38298 -0.0115088 -0.0163161 -0.0314706 
475 1 13.7679 24.3304 -6.69274 0.0190082 0.0171557 -0.0267794 
87 1 12.4375 24.3488 -6.38421 0.0044761 0.0106028 -0.0282416 
246 2 17.7747 35.6631 8.13976 -0.0293177 -0.055558 -0.0300808 
537 2 35.0361 33.2071 19.9577 0.0543274 0.018694 -0.00813064 
540 2 34.5396 32.7815 19.4907 0.0201404 0.0284056 0.0132719 
216 2 19.7128 12.9646 28.8584 -0.0366333 0.0606074 0.0159926 
345 1 20.1485 12.1659 29.4038 -0.0119044 -0.00167736 -0.00137305 
358 2 19.4875 13.5024 31.6808 0.06589 0.0375029 0.0830089 
346 1 19.5518 12.3817 31.7944 -0.0183085 -0.0242101 -0.0174895 
360 2 19.0714 12.6464 33.9147 0.0632953 -0.00435832 0.0559679 
446 1 22.5368 29.0677 33.1876 0.0190482 0.0233852 0.0176011 
449 1 21.9634 29.6801 32.4215 0.00683336 -0.0175885 -0.00100268 
458 2 22.328 28.1187 32.4619 -0.055028 0.0835531 -0.0913562 
464 2 21.609 30.4872 31.8537 0.00602926 -0.029147 0.051244 
348 1 19.4494 12.0201 33.177 -0.00441848 -0.00917084 -0.00640022 
319 2 57.2161 5.76186 9.88564 0.0489427 -0.06198 -0.0262393 
494 2 40.5815 4.02906 2.4237 -0.0333953 0.00953267 -0.0651384 
485 1 38.5662 3.73812 1.87106 -0.019363 -0.022214 -0.0141571 
498 2 38.1967 4.80073 1.71201 0.126353 0.0295983 -0.138868 
482 1 39.8802 3.14262 1.85326 0.017047 -0.00618891 -0.00159723 
323 2 54.4342 2.46014 5.8716 0.0566258 -0.0301751 -0.0354591 
320 2 54.4683 4.30729 5.13218 0.105122 0.0271997 -0.0606085 
294 1 54.5317 3.51016 5.95217 0.00766105 -0.0210253 0.00973276 
316 2 56.2687 -0.810008 6.62204 0.10285 -0.0387743 -0.0262685 
317 2 55.7607 -3.80373 10.9451 0.00370997 -0.0658115 0.0132719 
18 1 58.5491 -3.98529 9.84843 0.021334 -0.00947228 -0.00469008 
305 1 55.6451 -1.65544 10.6218 -0.0183802 -0.0160202 -0.0101232 
302 1 55.4048 -0.490338 10.0865 -0.00313039 -0.00841256 0.0112294 
297 1 55.6336 -2.77386 11.4505 0.0193935 -0.00606556 -0.00734594 
12 1 59.9503 -2.53968 5.47746 -0.0012367 0.0199211 -7.40731e-05 
22 1 57.8847 -3.4841 6.26177 -0.0101998 -0.00582987 0.00579096 
24 1 58.6764 -2.90266 5.00495 0.0271077 0.00906361 -0.015303 
34 2 56.9021 -3.82261 6.40208 -0.0662574 -0.0323689 -0.0120057 
11 1 58.3641 -3.32949 7.69871 0.0159543 0.00470568 -0.0287392 
30 2 56.7932 -4.69996 8.79435 -0.0558721 0.0584517 -0.0381319 
321 2 57.1632 -0.620635 7.83336 0.000134175 -0.0378582 0.0379181 
21 1 57.6988 -4.05214 8.84655 0.00527007 0.00803231 -0.0155715 
5 1 59.4738 -2.59083 8.2111 3.77125e-05 -0.0432003 -0.00838279 
503 2 42.6389 9.36571 10.2206 -0.0140099 0.0807358 -0.0543277 
104 2 42.1217 9.70373 10.2579 0.00681778 0.00326268 0.0528753 
493 2 59.7311 -0.663199 11.7388 -0.0210187 -0.0156553 -0.102205 
315 2 53.7782 1.79365 9.44157 0.03171 -0.00537681 0.0719875 
300 1 55.7316 3.46596 6.62673 0.0168 4.24764e-07 0.00729598 
293 1 56.1121 -0.19629 7.55622 0.030849 0.00990186 -0.0102832 
9 1 59.7032 -2.98295 9.63312 -0.0317456 -0.0121384 -0.00809955 
295 1 55.2477 0.599908 9.32112 -0.00576629 -0.00355037 0.0060709 
292 1 56.6675 3.49722 7.52852 0.0188795 -0.00251271 0.000972761 
289 1 55.8414 1.10977 8.17901 -0.00100167 -0.0309577 -0.0354193 
290 1 56.0607 2.45417 8.47164 -0.0302897 -0.0150324 -0.00225133 
301 1 54.7347 1.6712 10.0592 -0.00548458 -0.0169385 0.00724672 
245 2 55.571 4.27082 11.2644 0.0985825 -0.0729068 -0.00272861 
296 1 55.5079 2.78233 9.61902 -0.0114357 0.0273753 0.0248543 
304 1 55.9368 3.9794 10.2723 -0.00723467 -0.00938577 0.0121822 
303 1 55.0003 1.44125 11.5152 -0.041054 0.0108459 0.0142879 
308 1 58.3701 5.67367 8.3667 0.0153516 0.0197644 0.000681571 
311 1 59.2626 5.21109 7.66114 -0.00668982 0.0107285 -0.00384274 
298 1 57.2058 4.81685 8.19538 -0.00742664 0.00634988 0.0113332 
314 2 58.3696 6.64016 9.23464 0.0238686 -0.0131575 0.0194924 
307 1 56.7912 4.59006 9.46713 0.0113908 0.0100525 -0.00541945 
173 2 58.5439 4.50232 10.5298 -0.0840987 0.0278706 0.042084 
26 2 58.1664 -4.66988 10.6591 -0.0116391 -0.0397569 -0.0444886 
158 1 58.601 4.55781 11.6559 0.00595452 -0.00340192 0.00583343 
172 2 51.4001 6.06207 10.1863 0.00611525 0.0477368 0.0660678 
299 1 51.8169 6.64729 11.0002 0.044029 0.00339868 0.0127602 
426 2 47.2785 10.8732 11.6598 0.00229346 -0.0484416 0.0283066 
178 2 52.5154 7.26148 10.3075 0.0255361 0.0520107 0.0253029 
163 1 52.6499 6.24164 11.6968 0.00783995 -0.0151042 -0.0237696 
35 2 53.8406 -3.64218 11.8294 0.0653137 0.00987455 -0.0733117 
487 1 57.3734 -0.756893 16.9257 -0.0141213 0.0347735 0.00856451 
478 1 57.4679 -1.95714 17.5555 -0.00538877 0.0195563 0.0154706 
291 1 54.1113 -1.39349 12.9681 0.0212178 0.0202532 0.00708809 
310 1 54.6774 -0.599109 13.6815 -0.0676247 0.0207613 -0.00758656 
484 1 58.2691 -0.435933 15.7883 0.0173499 0.0196734 -0.00423008 
502 2 56.4496 -0.203631 16.864 0.076819 0.0155231 0.0498233 
472 1 58.676 -2.72149 17.4558 0.012678 0.0134493 -0.0180371 
481 1 59.5801 -1.60807 13.784 0.0064793 0.00502549 0.00182351 
476 1 58.9936 -1.42663 15.1656 0.000635682 -0.015955 -0.000902192 
499 2 56.3016 -2.1783 17.8027 -0.0232659 0.0334847 -0.0784357 
309 1 54.3424 -2.73397 12.398 -0.000242627 -0.00432257 -0.014302 
470 1 59.3853 -2.35585 16.361 -0.0297388 -0.00215461 -0.017184 
176 2 47.8413 -5.36531 28.0267 -0.0205615 0.0350272 -0.0178713 
164 1 49.6621 2.93204 13.2248 -0.0138449 -0.0189995 0.0120155 
171 2 57.4355 6.85932 11.978 0.0426088 -0.017165 -0.00783653 
167 1 50.5746 3.83668 13.8496 -0.0139286 0.00881895 0.0251671 
166 1 51.8866 3.95526 13.4514 0.0120448 0.00154832 -0.0131672 
160 1 53.3673 5.78768 12.7491 -0.00693528 -0.00848796 -0.00560588 
154 1 53.0097 4.21575 13.0761 -0.0274279 0.0306159 -0.0436201 
162 1 60.0209 1.77292 13.7962 0.0061364 0.0247038 0.0187595 
431 2 50.3067 6.664 15.5707 0.0174692 0.0033576 0.0177303 
148 1 54.1395 3.24552 13.1403 -0.00810633 0.00670233 0.000837522 
322 2 55.1477 1.12632 14.9291 0.129081 -0.0655088 -0.0290538 
306 1 55.5675 0.187096 14.481 -0.0108061 -0.00712307 -0.0172844 
155 1 58.1502 0.702722 14.713 -0.00607788 -0.00314848 0.00263211 
175 2 57.6952 2.05159 12.2873 0.103961 -0.00305479 -0.0540804 
149 1 56.8603 1.11764 14.2341 0.00842229 -0.0196677 0.00960002 
147 1 57.0138 2.16986 13.0993 -0.000442292 0.0237724 -0.00397882 
146 1 55.2237 4.23553 13.4671 0.00279694 -0.0139841 0.00905096 
145 1 56.5408 3.55622 13.0502 0.0236917 -0.0150805 0.0372671 
152 1 54.6754 5.54148 13.478 -0.00109512 -0.00547069 0.0135333 
390 2 49.0233 2.35966 14.0427 0.0590089 -0.0635993 -0.00625497 
161 1 59.4832 3.85352 12.6609 -0.00299758 0.000398679 0.0105002 
159 1 55.7626 6.55933 13.1656 -0.010198 0.0424388 -0.00787418 
150 1 54.5288 2.47677 12.1758 -0.00483061 0.00139409 -0.0184896 
415 1 49.593 11.8241 13.559 0.0135298 0.0337763 -0.0314694 
165 1 58.8707 0.719371 13.3794 -0.0140705 0.0218572 -0.0150799 
157 1 56.9106 6.02905 12.6491 0.0114652 0.000867719 0.0166834 
402 1 47.747 10.3494 12.4001 -0.0177795 0.00789962 -0.0178829 
400 1 48.6283 10.9596 13.1026 0.00379077 0.0216541 0.00250049 
427 2 48.1496 10.4135 17.3467 -0.0455635 0.0234829 -0.106119 
210 2 55.3499 0.274703 29.5568 -0.0396631 -0.038621 0.0392377 
425 2 47.2303 9.54487 12.8404 0.119617 0.06186 -0.0584156 
416 1 49.3086 7.72447 16.5907 0.0249626 0.00366742 -0.00994154 
419 1 49.3651 6.35861 16.188 -0.00904579 0.00987284 -0.0120948 
248 2 47.0945 -5.93292 28.3759 0.0157235 0.0129242 0.0200904 
428 2 51.9716 10.6015 12.6112 -0.0553898 -0.0922564 0.05589 
406 1 49.2374 9.03067 16.6647 0.0179641 -0.00429096 0.00824249 
412 1 49.1277 10.3264 16.6625 0.00813928 -0.00324958 0.0243777 
404 1 50.2247 11.2348 15.8311 -0.00799984 -0.0198857 -0.0205807 
424 2 53.0264 11.7583 16.9546 0.0856058 0.0823873 0.0979746 
398 1 50.466 11.2441 14.4488 0.0122365 -0.0142992 0.0234045 
17 1 51.5238 11.252 13.4291 -0.00987966 -0.00304874 -0.0151388 
169 2 55.1755 7.53472 13.1981 -0.0350627 0.06425 -0.0332216 
153 1 60.0711 2.99877 13.266 0.0318477 0.00500763 -0.0222415 
483 1 59.517 -0.570203 12.8482 -0.0317574 -0.0267811 -0.00945822 
489 1 59.4633 -4.60388 21.3868 0.00821743 0.00761449 0.0405579 
492 1 58.03 -6.56824 22.7126 0.0198536 0.00886827 0.00877709 
137 2 57.8689 -5.84756 23.6787 -0.0788242 0.108447 0.0551793 
490 1 59.0372 -4.33749 17.5377 0.0110986 0.0224497 -0.0140922 
486 1 59.132 -5.72051 22.5167 -7.59134e-05 -0.025852 -0.0277606 
151 1 57.3504 4.57682 12.5671 -0.00177124 0.00968012 0.0027475 
473 1 59.0676 -4.54346 18.7564 -0.0227726 0.0218038 0.0131105 
480 1 59.1976 -4.53306 20.0626 0.0331981 0.0270682 -0.000684414 
284 2 54.8642 0.611699 29.0546 -0.0420116 0.0120508 0.0743259 
393 2 49.3994 2.95185 12.2764 -0.0499647 -0.108414 -0.0392103 
497 2 59.7995 -6.6706 21.9818 0.044763 0.0248575 -0.0934239 
313 2 54.9069 0.58903 12.1044 -0.0334116 -0.0173995 -0.046139 
66 2 48.2697 21.5745 -10.7623 -0.0229477 -0.0758846 -0.0554608 
57 1 48.4619 20.851 -11.4381 -0.0116824 0.0281045 0.00816295 
90 1 47.5824 24.9296 6.11243 -0.00642834 -0.000833783 -0.00402939 
47 1 48.3039 19.447 -11.3106 0.00307037 0.0186343 0.0371703 
413 1 52.3473 12.5759 11.6797 0.0167438 0.00888501 0.0127843 
91 1 41.0992 29.1951 3.38299 -0.010017 -0.0165855 0.00683099 
107 2 42.1873 28.2735 6.37615 -0.0160636 0.0332562 -0.0826472 
82 1 43.2224 28.2917 2.71961 0.00546531 -0.00226279 0.0253139 
92 1 42.0683 28.6134 4.14124 -0.0011813 0.0207639 -0.00492117 
78 1 44.3195 26.7831 4.32923 0.0260448 0.0176408 -0.00821442 
76 1 44.4179 28.0016 3.091 -0.00573776 -0.00985954 -0.0262883 
84 1 43.1601 26.8249 5.37211 -0.0110969 0.0131635 -0.0126124 
74 1 45.783 27.8395 2.19353 -0.00814714 -0.0183496 0.0121891 
355 2 46.0294 28.3492 1.36303 -0.0259587 0.00855306 -0.0308832 
95 1 42.5386 28.2334 5.35831 0.00298304 -0.0110614 -0.0189757 
77 1 45.5731 26.6155 4.86951 -0.0208512 -0.000219995 0.0137654 
73 1 46.8161 27.4764 2.87908 -0.0136504 -0.000413593 0.0126899 
75 1 47.0041 26.5971 4.1319 0.0231062 -0.0164113 -0.00637516 
79 1 48.2506 27.5071 2.21428 0.00869175 0.0369466 0.0471441 
97 2 50.2736 25.7174 4.88237 -0.0347518 -0.0270555 -0.036412 
89 1 49.2021 26.0773 4.48962 -0.0104808 -0.0281816 -0.00406352 
81 1 47.884 25.7948 4.85418 0.0084293 -0.00940886 0.0117758 
86 1 48.9643 26.908 3.29576 -0.00721034 -0.0104552 9.7606e-05 
88 1 39.7924 29.8107 3.2878 -0.030218 0.0173349 -0.00483675 
103 2 38.9339 29.5832 3.88489 -0.10516 0.00877348 0.027269 
14 1 52.6923 14.2181 9.49738 0.0177842 -0.0194008 -0.0127483 
29 2 51.8515 14.2762 8.8474 -0.0327013 0.0231077 0.0497825 
422 2 53.682 14.8358 9.44969 0.131768 -0.0965042 -0.0514675 
410 1 52.5799 13.4075 10.6366 -0.00318186 0.00975145 0.00946628 
430 2 51.1294 16.7902 11.7704 -0.0240829 0.0278872 0.0036052 
101 2 45.9484 24.0765 7.45438 0.0166629 -0.073962 1.55459e-05 
96 1 43.2089 25.9204 6.59855 0.0180366 -0.00676084 0.00593487 
93 1 46.235 24.8249 6.72208 -0.00603255 0.00861016 -0.0109313 
94 1 44.4854 26.3671 7.25088 -0.0199043 -0.0224822 -0.00609928 
102 2 44.8272 26.1149 8.34197 -0.0449478 0.0368231 0.0249904 
106 2 42.6313 25.079 6.58216 -0.127155 0.0564736 0.0360945 
83 1 45.4054 26.0675 6.24956 0.0308675 0.00500248 0.000919664 
65 2 48.3691 19.2799 -10.101 0.0561958 0.0257967 0.0351968 
420 1 49.5542 16.0366 13.1587 0.00228019 -0.00631281 0.0181786 
403 1 52.5155 16.2682 15.851 -0.0117838 0.0050829 0.0145766 
399 1 50.9078 13.5656 13.4112 -0.00166197 0.0204499 0.00548594 
401 1 49.6959 13.1781 13.8462 0.0112367 -0.00147825 -0.0305392 
408 1 48.6079 14.198 14.5301 -0.0139031 -0.0323613 0.00617907 
41 1 48.4126 19.7258 34.1638 0.000144501 0.0158093 0.000326807 
414 1 51.5546 14.8034 12.8959 -0.000317951 0.00732444 0.00151499 
407 1 52.7519 14.8269 13.6193 -0.011554 0.00102841 0.013035 
136 2 53.5973 15.0663 12.9451 -0.0665761 0.0588195 -0.098519 
98 2 52.8492 17.317 15.6106 -0.0406639 0.0344624 0.154047 
39 1 49.7947 19.0665 34.5304 -0.00574897 -0.0144174 -0.0153814 
418 1 48.2858 15.469 13.9534 -0.0158779 -0.000782507 0.00238691 
417 1 52.8578 15.1275 15.1238 0.026508 -0.0303339 0.0195734 
70 2 53.1584 14.2691 15.5982 -0.0714656 0.0233736 -0.0169256 
250 2 47.6595 16.186 14.4754 -0.077469 -0.122239 0.0814771 
429 2 51.8619 16.0729 16.7204 -0.0350863 -0.0281897 0.00355683 
33 2 42.4335 15.9893 23.5569 -0.119511 0.00112826 -0.00246047 
287 2 42.351 15.1268 23.7131 -0.109469 -0.0461885 0.0212973 
524 1 42.9094 14.3484 30.5524 0.00169778 0.0287551 -0.000593157 
508 1 42.9855 16.6598 29.6331 -0.00653642 -0.0064729 0.00297637 
536 2 41.6103 14.3725 27.566 -0.076617 -0.0012517 0.131513 
523 1 42.6487 14.7771 27.8865 0.0250593 -0.0205825 0.00244685 
514 1 42.8131 15.1823 29.3381 -0.0112847 -0.0147272 -0.0314669 
535 2 43.1716 15.466 26.0139 -0.0170556 -0.0767301 -0.098524 
520 1 42.8063 15.8771 27.0312 -0.00379872 0.0218242 0.0180408 
512 1 43.1856 17.3903 27.5498 -0.0127848 0.00599434 0.0227996 
518 1 41.8391 21.266 27.7252 -0.000501542 0.000531543 0.00196176 
521 1 40.9446 21.6403 28.7837 -0.000358101 -0.0109295 -0.0263715 
530 2 40.2491 22.5001 28.5755 0.0949571 0.0477135 -0.0401222 
511 1 42.4734 20.1675 28.2817 0.00222234 -0.0136814 0.00490826 
506 1 43.1289 17.7727 28.9922 0.0379812 -0.00464074 -0.0080489 
505 1 42.8672 19.2149 29.3637 -0.0141408 -0.0143275 0.00476456 
529 2 41.8689 21.4173 26.4261 0.0250522 0.000733076 -0.119759 
519 1 42.415 18.3214 26.8565 -0.000739952 -0.0216042 -0.00912603 
517 1 43.1542 19.4522 27.1004 0.0114407 -0.0150932 0.00620374 
531 2 43.8254 19.9109 26.3431 -0.00837594 0.00226112 -0.0448975 
156 1 42.4153 33.3953 28.7383 -0.0111977 0.007994 0.0484411 
168 1 42.3327 32.9103 29.8599 0.0296693 -0.0171602 0.0300555 
180 2 42.0911 31.6444 30.064 0.0720383 -0.00653466 -0.00153353 
516 1 42.5455 15.8575 32.0013 -0.00538421 0.00462538 0.00114188 
528 1 41.5788 16.1039 32.8572 -0.00461494 0.0112725 -0.00208783 
527 1 43.3053 14.2672 32.0109 0.0258248 0.0146419 0.0195393 
510 1 42.58 16.9724 30.9386 -0.0102367 -0.0303304 -0.0211838 
67 2 45.4734 15.7719 30.3236 -0.00432035 0.108887 -0.0166003 
526 1 40.9753 17.1828 33.4376 -0.0180891 -0.00930525 -0.00433561 
55 1 46.0599 16.0487 31.4283 0.0315376 0.00426694 -0.0130347 
52 1 47.3716 15.4816 31.6063 0.0103047 -0.0232665 -0.00683117 
46 1 46.1541 17.3638 32.129 0.0180786 0.012643 -0.00825296 
40 1 47.6284 18.0516 32.4873 -0.00154656 0.0106544 0.0123545 
72 2 44.2651 18.8233 31.9069 -0.053687 0.0442484 -0.026272 
63 2 48.3629 13.7181 32.1669 -0.053461 -0.027128 0.0571129 
50 1 52.422 17.0738 34.2285 -0.0319153 -0.00638752 -0.0146278 
43 1 50.9645 16.9774 33.752 0.0150586 0.00119318 0.0167558 
49 1 50.5602 15.6031 32.8322 0.00226333 0.00722672 0.0129441 
44 1 49.3789 15.8291 32.4597 0.000383104 -0.00273997 0.00621748 
51 1 48.5523 14.73 31.7968 -0.0140148 -0.0109137 -0.00548147 
37 1 49.9189 18.1261 33.4973 -0.0155231 0.00488396 -0.0353217 
38 1 48.9573 17.4957 32.6392 -0.0197937 -0.0333934 -0.0174715 
53 1 52.9876 18.174 34.9677 0.00243956 0.000716151 -0.00366902 
135 2 44.7516 13.2314 26.5793 -0.0353629 -0.000947834 -0.0066354 
538 2 40.2338 17.1317 34.3223 0.0625754 0.00381333 -0.0185611 
525 1 40.6472 19.6991 32.0283 0.00115239 0.00589653 -0.0216393 
522 1 41.6449 20.4892 31.1149 0.0101672 -0.00877324 0.00109124 
515 1 41.1468 18.4993 32.5373 0.000477774 -0.0174058 0.0270656 
534 2 39.6306 20.1215 32.1491 -0.0278911 0.0378265 -0.0321433 
513 1 40.8036 21.3915 30.2535 -0.000574984 -0.00562657 0.010728 
533 2 40.0256 22.1836 30.4581 -0.0328433 0.0570911 0.00811321 
58 1 48.3873 20.9088 35.0231 -0.00413425 -0.00142168 -0.000445797 
507 1 42.233 19.3691 30.4926 -0.00530602 -0.0139244 -0.0146382 
509 1 42.0783 18.1521 31.3379 -0.00297899 -0.0185719 -0.00946559 
60 1 45.6936 21.6791 34.761 -0.0206265 0.00128028 0.0121908 
59 1 45.2353 18.5829 32.1691 -0.01298 -0.000481393 -0.000480925 
56 1 45.9001 19.2857 33.2084 0.000801871 -0.0156561 -0.00537983 
48 1 45.3791 20.2861 34.124 -0.00692785 -0.0191412 -0.015345 
42 1 47.3547 19.1378 33.4194 0.00339082 -0.00583815 -0.00192182 
54 1 47.0784 21.6443 35.0898 0.0205146 -0.00427987 0.00703042 
69 2 44.9453 22.1969 35.125 0.0337903 0.0626378 0.078465 
61 2 53.3182 16.3472 33.9211 -0.0694993 0.0328528 0.0929926 
282 2 44.9471 13.3932 27.1582 0.0834787 0.0503612 0.00416042 
411 1 50.9955 12.2473 16.7587 0.0149195 -0.0204138 -0.00345702 
405 1 50.7295 15.9949 12.5901 -0.0213046 -0.0144859 0.0256457 
423 2 52.6363 13.329 18.0225 0.0351249 0.0731501 -0.0553984 
397 1 51.5003 12.3336 12.7699 -0.00705124 0.0342785 -0.000692504 
45 1 49.2755 18.5942 35.8948 0.00379138 0.000113158 -0.00764526 
409 1 52.2752 12.8041 17.0402 0.0363299 0.0490254 0.0109833 
62 2 52.3044 18.9196 35.63 -0.0543934 0.107702 -0.0969793 
195 1 72.8531 2.46002 -7.52687 0.00193994 0.0165462 0.00489991 
208 2 70.9813 1.95419 -6.4037 -0.0317008 0.0333629 -0.0323773 
193 1 71.5886 2.70388 -7.04497 0.0161673 -0.0142646 -0.0115131 
206 2 68.7442 3.00214 -6.51678 0.0708537 0.0325763 -0.0357447 
187 1 70.5792 3.3086 -7.89292 0.00400049 0.0131842 -0.000443647 
181 1 71.3067 3.937 -8.90295 -0.00122168 -0.0232899 -0.0057018 
194 1 69.1817 3.5489 -7.56183 0.0208212 -0.0242986 0.0152416 
183 1 70.6751 4.53983 -10.1408 -0.0101753 0.0172769 -0.00125679 
189 1 69.4439 3.95789 -9.9805 0.0136542 0.00724235 0.0313753 
197 1 68.6512 4.33102 -8.67208 -0.00278709 -0.0127501 -0.0188523 
185 1 71.3291 5.22021 -11.314 0.00826987 -0.0101493 0.00295446 
209 2 67.9263 5.017 -8.59261 -0.0480786 0.0200491 -0.015175 
207 2 73.6109 1.69456 -7.11193 0.00230765 -0.0257189 -0.06671 
188 1 73.403 3.30406 -8.20179 0.00522813 0.00417964 -0.0171024 
182 1 72.616 3.88289 -9.10303 0.0392235 -0.0013997 0.00238496 
196 1 74.9661 3.08427 -8.4446 -0.0041445 0.00650379 0.00667845 
211 2 75.4664 2.27132 -7.76678 -0.0469259 -0.025961 -0.00938074 
184 1 73.3653 4.65748 -10.344 0.0161447 -0.0177397 -0.0095985 
199 1 75.3623 3.40658 -9.71171 0.00647767 -0.00399837 0.00930581 
190 1 74.7048 4.49275 -10.6943 0.0133906 0.00426807 0.00411765 
200 1 75.2843 4.98867 -11.7455 -0.00641922 -0.0198866 -0.0198977 
186 1 72.6989 5.77098 -11.0005 0.0141388 -0.00144436 -0.00806816 
312 1 60.4535 4.87267 7.25374 0.00784444 0.00466002 -0.00951694 
36 2 60.7825 -2.23175 3.75332 0.0607766 -0.0294805 0.0464739 
198 1 68.4845 4.04096 -11.0283 -0.00756363 -0.0351908 0.0108774 
202 1 74.1537 7.89029 -10.9051 -0.0172428 0.0154309 0.00319645 
192 1 73.6939 6.75554 -11.5786 0.0150298 0.00581606 0.00628376 
204 1 74.5986 8.69784 -10.1894 -0.00109553 -0.00768792 -0.009785 
212 2 74.871 9.54826 -9.62845 0.0243118 -0.0153517 0.0748857 
118 1 68.8892 -0.431108 0.0455803 0.00695506 -0.00733836 0.00822785 
128 1 68.9694 -0.329631 -1.24247 0.000488054 0.0120408 -0.00195837 
205 2 67.459 -2.15087 -0.081222 0.0155091 -0.000131822 0.00910598 
140 2 68.4431 -0.643677 -2.18372 -0.00233783 0.0702562 0.0335668 
131 1 70.2276 -0.595749 -1.81044 -0.0326071 -0.0152712 0.0104572 
143 2 70.3561 -0.749471 -2.78726 -0.131984 -0.003686 -0.0563424 
132 1 72.665 0.0356079 -1.30958 -0.00375959 0.00413899 -0.0320509 