LAMMPS (5 Jun 2019)
Reading data file ...
  orthogonal box = (-12 -12 -12) to (12 12 12)
  2 by 2 by 4 MPI processor grid
  reading atoms ...
  36 atoms
  read_data CPU = 0.00327824 secs
Replicating atoms ...
  orthogonal box = (-12 -12 -12) to (12 12 36)
  2 by 2 by 4 MPI processor grid
  72 atoms
  replicate CPU = 0.00202735 secs
Neighbor list info ...
  update every 1 steps, delay 10 steps, check yes
  max neighbors/atom: 2000, page size: 100000
  master list distance cutoff = 12
  ghost atom cutoff = 12
  binsize = 6, bins = 4 4 8
  2 neighbor lists, perpetual/occasional/extra = 2 0 0
  (1) pair reax/c, perpetual
      attributes: half, newton off, ghost
      pair build: half/bin/newtoff/ghost
      stencil: half/ghost/bin/3d/newtoff
      bin: standard
  (2) fix qeq/reax, perpetual, copy from (1)
      attributes: half, newton off, ghost
      pair build: copy
      stencil: none
      bin: none
Setting up Verlet run ...
  Unit style    : real
  Current step  : 0
  Time step     : 0.1
Per MPI rank memory allocation (min/avg/max) = 9.281 | 10.3 | 11.37 Mbytes
Step Temp PotEng KinEng TotEng Press 
       0         2000   -9385.7451    423.27503   -8962.4701    1540.7666 
    1000      962.884   -9167.5348    203.78238   -8963.7524   -655.61312 
Loop time of 3.93005 on 16 procs for 1000 steps with 72 atoms

Performance: 2.198 ns/day, 10.917 hours/ns, 254.450 timesteps/s
100.0% CPU use with 16 MPI tasks x no OpenMP threads

MPI task timing breakdown:
Section |  min time  |  avg time  |  max time  |%varavg| %total
---------------------------------------------------------------
Pair    | 0.59757    | 0.65389    | 0.75855    |   5.7 | 16.64
Neigh   | 0.00030583 | 0.00032369 | 0.00034604 |   0.0 |  0.01
Comm    | 0.1715     | 0.24152    | 0.30289    |   7.2 |  6.15
Output  | 0.00012953 | 0.00015304 | 0.00019372 |   0.0 |  0.00
Modify  | 2.9664     | 2.9716     | 2.9756     |   0.2 | 75.61
Other   |            | 0.06255    |            |       |  1.59

Nlocal:    4.5 ave 8 max 2 min
Histogram: 4 3 0 2 0 1 2 0 2 2
Nghost:    117 ave 131 max 104 min
Histogram: 2 3 1 1 1 3 0 1 2 2
Neighs:    147.312 ave 252 max 69 min
Histogram: 4 3 0 2 0 1 2 0 2 2

Total # of neighbors = 2357
Ave neighs/atom = 32.7361
Neighbor list builds = 4
Dangerous builds = 0
Setting up Verlet run ...
  Unit style    : real
  Current step  : 1000
  Time step     : 0.1
Per MPI rank memory allocation (min/avg/max) = 9.349 | 10.35 | 11.37 Mbytes
Step Temp PotEng KinEng TotEng Press 
    1000      962.884   -9167.5348    203.78238   -8963.7524   -655.61309 
    2000     3321.166   -8791.5447    702.88331   -8088.6614    1798.3674 
    3000    3391.7758   -8546.8138    717.82699   -7828.9868   -1726.8903 
    4000    3924.1082   -8725.1506    830.48849   -7894.6621    170.16192 
    5000    3615.6223   -8769.2072    765.20132   -8004.0059   -1656.7501 
    6000    3583.2967   -8620.1661    758.36001    -7861.806   -112.69606 
    7000    3625.5367   -8763.1159    767.29957   -7995.8163   -2424.8955 
    8000    3559.3956   -8671.5429    753.30163   -7918.2413    1129.1064 
    9000     3293.019   -8638.3476    696.92634   -7941.4212   -1426.0149 
   10000    3752.2129   -8779.2886    794.10901   -7985.1796   -197.28161 
   11000    3547.0201    -8756.023    750.68251   -8005.3405    1920.7883 
   12000    3786.0972   -8630.4181     801.2802   -7829.1379    971.11883 
   13000    3535.8048   -8657.4049    748.30894    -7909.096     1205.109 
   14000    3479.3468    -8685.515    736.36031   -7949.1547    -837.3488 
   15000    3225.5064    -8738.447    682.63816   -8055.8089    -120.3506 
   16000    2981.1981   -8710.5302    630.93334   -8079.5969    875.11716 
   17000    3170.4607   -8722.6284    670.98841     -8051.64   -1104.7782 
   18000    3317.2449   -8735.9498    702.05347   -8033.8963    552.80558 
   19000    3514.6024    -8564.243    743.82171   -7820.4213   -272.93443 
   20000    2753.1962   -8614.2489     582.6796   -8031.5693    831.43325 
   21000    3559.7198   -8691.4446    753.37024   -7938.0744   -1119.8648 
   22000    3605.3099   -8763.5569    763.01882   -8000.5381   -1355.7492 
   23000    3074.6529   -8773.8908    650.71189   -8123.1789   -826.29814 
   24000     3388.925   -8712.8257    717.22367    -7995.602    1250.2888 
   25000     3417.733   -8661.8441     723.3205   -7938.5236   -615.19735 
   26000    4282.2183    -8678.545    906.27803   -7772.2669   -285.52121 
   27000     3837.235   -8689.1917    812.10287   -7877.0888    1556.2282 
   28000    3531.0031   -8802.3237    747.29271    -8055.031     910.0693 
   29000    3620.5561   -8765.5934    766.24549   -7999.3479   -967.29699 
   30000    3499.6365   -8689.0805    740.65437   -7948.4262    -370.1386 
   31000      3973.02   -8609.5135    840.84007   -7768.6735   -85.743873 
   32000    3411.1966   -8728.2516    721.93717   -8006.3145    1145.4537 
   33000    3607.8475   -8588.6332    763.55587   -7825.0773    159.48446 
   34000    3181.3109   -8667.7367    673.28473    -7994.452   -316.65576 
   35000    3448.6829   -8615.0389    729.87068   -7885.1682     506.3703 
   36000    3169.1277   -8611.2049    670.70631   -7940.4986    -381.8541 
   37000    3588.2619   -8691.3559    759.41082   -7931.9451     335.8725 
   38000    3693.1179    -8611.962    781.60229   -7830.3597   -1319.1649 
   39000    3808.8758   -8751.8931    806.10099   -7945.7921    462.77351 
   40000    3561.8946   -8626.8615    753.83052    -7873.031   -571.20085 
   41000    3762.7252   -8596.8085     796.3338   -7800.4747   -1417.4445 
   42000    3535.2903   -8738.8584    748.20005   -7990.6584    1055.9497 
   43000     3290.837   -8611.3518    696.46457   -7914.8873   -796.31854 
   44000    3961.7428   -8733.0898    838.45339   -7894.6364    1435.3772 
   45000     2462.314   -8670.7654    521.11802   -8149.6474    163.48011 
   46000    3018.9114   -8601.7968     638.9149   -7962.8819   -319.71413 
   47000    3783.3155    -8885.447    800.69149   -8084.7555    451.70508 
   48000    3669.3509   -8805.8386     776.5723   -8029.2663   -203.86704 
   49000    2784.9409    -8597.667    589.39796    -8008.269   -407.54504 
   50000    3289.1996   -8828.9991    696.11802   -8132.8811   -10.221246 
   51000    3269.7051   -8662.0648    691.99225   -7970.0725   -803.82778 
   52000    3132.7052   -8794.2818    662.99793   -8131.2839   -415.73463 
   53000    3244.2787   -8741.1875    686.61107   -8054.5764   -263.57665 
   54000    3356.8253   -8615.6698    710.43016   -7905.2396    11.907219 
   55000    3808.3639   -8559.7023    805.99266   -7753.7096    1371.1114 
   56000    3455.3235   -8724.1857    731.27608   -7992.9096   -1142.9926 
   57000     3460.559   -8698.2155     732.3841   -7965.8314   -972.67346 
   58000    3378.1263   -8573.4405    714.93826   -7858.5022   -56.550545 
   59000    3443.4727    -8547.126    728.76799    -7818.358    968.07337 
   60000    3086.7651   -8785.6306    653.27528   -8132.3553   -403.52077 
   61000    3864.7885   -8657.8432    817.93423    -7839.909    629.66541 
   62000    3188.5463   -8768.1947      674.816   -8093.3787    976.63425 
   63000    3757.7595   -8756.9033    795.28288   -7961.6204    191.22418 
   64000    3594.2197   -8640.1169    760.67173   -7879.4452    131.70896 
   65000     2884.127   -8722.6871    610.38947   -8112.2976   -246.39841 
   66000    3788.0242   -8605.3041    801.68802   -7803.6161    1092.5029 
   67000    3081.7268   -8532.4119      652.209   -7880.2029   -2083.4116 
   68000    3646.7838   -8573.1581    771.79626   -7801.3619    632.54767 
   69000    4058.5949   -8600.4108    858.95093   -7741.4599    2513.7536 
   70000    3253.0244   -8631.9652    688.46199   -7943.5032   -1265.8716 
   71000     3839.351   -8669.5083     812.5507   -7856.9576   -894.93693 
   72000    3429.1086   -8693.7695    725.72803   -7968.0415    816.86551 
   73000    3452.5631   -8687.4617    730.69187   -7956.7699    507.71627 
   74000    2946.1723   -8677.7036    623.52058    -8054.183   -190.72061 
   75000    3504.4439   -8730.1036     741.6718   -7988.4318    -486.4106 
   76000    3490.3806   -8578.0119    738.69548   -7839.3164    951.75653 
   77000    3751.3349   -8671.3631    793.92319   -7877.4399   -96.398931 
   78000    3584.1857   -8705.1254    758.54816   -7946.5772   -3141.2936 
   79000    3320.8285   -8646.5168     702.8119   -7943.7049    437.88474 
   80000    3549.5915   -8671.5229    751.22672   -7920.2962   -656.45394 
   81000     3942.307   -8633.9497    834.34006   -7799.6096    575.05583 
   82000    3414.0043   -8765.6981    722.53138   -8043.1667    1863.5063 
   83000    4163.9494   -8684.6936     881.2479   -7803.4457   -2008.0355 
   84000    3486.6587   -8714.1126    737.90777   -7976.2049    -1589.368 
   85000    3673.8854   -8613.6484    777.53197   -7836.1164   -1975.3536 
   86000    3027.8991   -8622.1956    640.81704   -7981.3785   -723.27896 
   87000    3630.5812    -8695.095    768.36719   -7926.7278    396.72445 
   88000    3429.9099   -8728.2566     725.8976   -8002.3589     1198.873 
   89000    3732.7314   -8709.3333    789.98599   -7919.3473    489.07238 
   90000    3726.9251   -8674.5831    788.75716    -7885.826    1278.2467 
   91000    3418.6505   -8743.1347    723.51468     -8019.62    772.75909 
   92000    3436.5204   -8612.7541    727.29663   -7885.4574   -2515.1218 
   93000     3412.863   -8534.3295    722.28985   -7812.0397    1628.5858 
   94000     3515.207   -8702.3594    743.94967   -7958.4097   -1439.8826 
   95000    3274.4985    -8477.738    693.00673   -7784.7313    1036.7146 
   96000    3327.3655   -8645.6564    704.19537   -7941.4611   -121.86703 
   97000    4021.8039   -8578.7003    851.16457   -7727.5358     -1568.01 
   98000    2993.6889   -8414.6342    633.57688   -7781.0573    113.23579 
   99000     3967.274   -8613.3819      839.624   -7773.7579    2173.4822 
  100000    3689.1577   -8544.4798    780.76416   -7763.7156   -203.87823 
  101000    3259.1268   -8540.1876     689.7535   -7850.4341   -1582.1084 
  102000    3408.6792   -8625.8858    721.40439   -7904.4814    94.905164 
  103000    3701.8182   -8580.8272     783.4436   -7797.3836    1085.5885 
  104000    3398.5694   -8685.6954    719.26478   -7966.4306   -1455.8198 
  105000    3510.8126    -8570.393    743.01966   -7827.3733   -966.40951 
  106000    3347.8533   -8668.7602    708.53134   -7960.2288   -424.07347 
  107000    3350.1307   -8641.9406    709.01333   -7932.9273    139.47736 
  108000    3478.7554   -8523.3301    736.23513    -7787.095    1059.3617 
  109000    4308.1669    -8606.803    911.76974   -7695.0332    1007.8846 
  110000    3729.6513   -8634.0464    789.33413   -7844.7123    1178.5964 
  111000    3013.0098   -8684.5959     637.6659     -8046.93    671.37918 
  112000       3467.4   -8619.0741    733.83191   -7885.2422   -585.51154 
  113000    3368.7217   -8690.5729    712.94789    -7977.625    1810.6442 
  114000    3016.7622   -8638.4128    638.46006   -7999.9527   -757.78817 
  115000    3916.1478   -8562.6273    828.80379   -7733.8236    2020.6116 
  116000    3284.3357   -8540.8847    695.08865    -7845.796    657.19341 
  117000    3329.2015   -8460.5861    704.58392   -7756.0022    2927.7399 
  118000    3459.7756   -8657.4987    732.21831   -7925.2804    1376.8592 
  119000    3638.3324   -8533.2633    770.00762   -7763.2556    751.65422 
  120000    3208.9689   -8541.6048     679.1382   -7862.4666    -2352.085 
  121000    3564.3584    -8504.675    754.35196   -7750.3231    1720.9191 
  122000    3286.3666   -8537.8991    695.51845   -7842.3806   -364.25356 
  123000    3580.1297   -8584.5727    757.68974    -7826.883   -205.82345 
  124000    3512.7159     -8643.95    743.42247   -7900.5275   -1052.3814 
  125000    3258.3404   -8584.9243    689.58706   -7895.3372    195.60726 
  126000    3574.3445   -8545.3087    756.46539   -7788.8433   -59.584346 
  127000    3439.5947   -8631.3709    727.94727   -7903.4236    969.22606 
  128000    4109.3835   -8363.7734    869.69972   -7494.0736    1738.4762 
  129000    3393.6844   -8675.3395    718.23093   -7957.1086    2320.0246 
  130000    3245.7526   -8538.4321    686.92301   -7851.5091   -358.27283 
  131000    3409.6233   -8597.0954    721.60419   -7875.4912   -1949.0427 
  132000    3804.1288   -8586.4917    805.09636   -7781.3953   -2183.1138 
  133000    4025.5719   -8465.9943    851.96204   -7614.0322    -455.7945 
  134000    3691.1211   -8578.0484    781.17969   -7796.8688   -1139.0208 
  135000    3480.1817   -8484.8395      736.537   -7748.3025    543.76311 
  136000    4194.0032   -8574.9262     887.6084   -7687.3178    1505.4187 
  137000    3855.0982   -8646.5217    815.88339   -7830.6383   -572.73179 
  138000    3327.0343   -8633.3408    704.12526   -7929.2155    209.96782 
  139000    4245.5054   -8666.5055    898.50821   -7767.9973    -1060.704 
  140000    4154.0505    -8579.173    879.15292   -7700.0201    2964.0323 
  141000    3303.8001   -8582.8861    699.20804    -7883.678     287.6662 
  142000    3623.8096   -8620.1036    766.93406   -7853.1695     1014.964 
  143000    3501.5232   -8404.5469    741.05366   -7663.4932     282.2942 
  144000    3449.8471   -8638.5868    730.11706   -7908.4698   -171.77626 
  145000     3140.461   -8556.3736    664.63935   -7891.7343   -1054.9862 
  146000    3469.9411   -8539.9691     734.3697   -7805.5994   -143.63633 
  147000    3697.1312   -8509.0498    782.45165   -7726.5982    350.04456 
  148000    3541.3811   -8608.4392     749.4891   -7858.9501   -762.36716 
  149000    3490.6044   -8548.5342    738.74284   -7809.7914   -608.98284 
  150000    3426.5292   -8526.2129    725.18211   -7801.0308    2773.1886 
  151000    3210.9945   -8487.2973     679.5669   -7807.7304    292.18201 
  152000    3667.1967   -8638.0762     776.1164   -7861.9598    521.10669 
  153000    4147.1849   -8563.2886     877.6999   -7685.5887    833.00555 
  154000    3292.8162   -8598.6667    696.88344   -7901.7832    637.64649 
  155000    3450.7386   -8530.2666    730.30573   -7799.9609   -420.13893 
  156000    3771.3877   -8472.9849    798.16712   -7674.8178   -2169.4969 
  157000    4069.7445   -8576.1911     861.3106   -7714.8805   -223.92038 
  158000    4030.3593   -8448.8248    852.97523   -7595.8496    3606.9406 
  159000    3640.9501   -8495.8419    770.56163   -7725.2803   -1295.1334 
  160000    3419.9522   -8549.8844    723.79018   -7826.0942    375.66841 
  161000    3488.9435   -8495.3416    738.39134   -7756.9503   -2341.5516 
  162000    3603.7171   -8548.8247    762.68172    -7786.143   -1058.5814 
  163000    3613.5383   -8431.5835    764.76027   -7666.8233    -430.9526 
  164000    4257.3163   -8444.0527    901.00785   -7543.0448    1157.3945 
  165000    3318.1143   -8599.8591    702.23747   -7897.6216    1324.2916 
  166000    3514.3189   -8564.1766     743.7617   -7820.4149   -141.54554 
  167000    3861.6655    -8459.508    817.27328   -7642.2347   -540.56892 
  168000    3188.7646   -8542.2647    674.86221   -7867.4025    321.20319 
  169000    4210.9774   -8479.6827     891.2008    -7588.482   -397.85579 
  170000    2826.7294   -8607.3911    598.24197   -8009.1492   -1695.3741 
  171000    3470.4379   -8540.0343    734.47485   -7805.5594   -1171.7664 
  172000    3780.6386   -8431.5023    800.12496   -7631.3774    987.22611 
  173000     3242.025   -8515.2385     686.1341   -7829.1044    -1633.307 
  174000     3178.955    -8452.281    672.78612   -7779.4949   -664.44917 
  175000    3572.9796   -8472.1247    756.17651   -7715.9482   -221.55982 
  176000    3042.5891   -8585.2921    643.92599   -7941.3661     -763.672 
  177000    3186.8902   -8475.1747    674.46552   -7800.7092   -1294.4863 
  178000    3286.5257   -8507.4007    695.55212   -7811.8486     755.6692 
  179000    3583.4711   -8578.1731     758.3969   -7819.7762    996.56702 
  180000    3069.1159   -8376.8999    649.54005   -7727.3598   -1022.1059 
  181000    3384.5825   -8558.3411    716.30462   -7842.0365    234.55479 
  182000    3354.2441   -8515.6759    709.88388    -7805.792   -134.55662 
  183000    3682.9164   -8452.3594    779.44327   -7672.9161    1868.0073 
  184000    3949.6062    -8628.997    835.88483   -7793.1121     1140.779 
  185000    3866.7439   -8407.7994    818.34807   -7589.4513   -2.2737492 
  186000    3628.4626   -8595.9847     767.9188   -7828.0659    3306.4097 
  187000    3526.5661    -8559.659    746.35367   -7813.3053    1283.8456 
  188000    2980.5012    -8631.275    630.78587   -8000.4892    262.80889 
  189000    4109.8485   -8528.6871    869.79811   -7658.8889    366.46336 
  190000     3418.451   -8426.4132    723.47248   -7702.9407    -375.7567 
  191000    3433.9424   -8628.3946    726.75103   -7901.6435    1268.8323 
  192000    3374.3277   -8491.1791    714.13432   -7777.0448   -2506.1241 
  193000    3470.2831   -8603.1141     734.4421    -7868.672   -794.72169 
  194000    3633.7034   -8594.2329    769.02796   -7825.2049    831.24915 
  195000    3322.8769   -8411.8941     703.2454   -7708.6487    1332.9162 
  196000    3213.2406   -8678.5859    680.04225   -7998.5437   -1189.1593 
  197000    3111.6461   -8443.5914    658.54104   -7785.0504    235.57309 
  198000    3136.3713   -8558.4348    663.77382    -7894.661    252.05765 
  199000    3223.7112   -8503.3811    682.25822   -7821.1229    553.02521 
  200000    3604.7399   -8586.5255    762.89819   -7823.6273   -794.17352 
  201000    3451.8467   -8470.3383    730.54024   -7739.7981   -1981.5295 
  202000    3316.7437   -8646.2845     701.9474   -7944.3371     1919.194 
  203000    3999.5645   -8481.5702    846.45789   -7635.1123    783.88448 
  204000    3226.9109   -8583.6912    682.93541   -7900.7558   -224.06237 
  205000    4035.5932   -8486.8252     854.0829   -7632.7423    1141.8435 
  206000    3553.3931   -8541.0102    752.03128   -7788.9789   -775.04035 
  207000    3781.1047   -8511.5753     800.2236   -7711.3517    481.09679 
  208000    3410.6564   -8500.5231    721.82283   -7778.7003   -262.90447 
  209000    3729.4567   -8520.1275    789.29294   -7730.8345    1646.7804 
  210000    3713.3892   -8559.9676    785.89245   -7774.0751   -2178.1282 
  211000    3126.6339    -8384.965    661.71302    -7723.252   -364.75358 
  212000    3721.9464   -8558.9469    787.70347   -7771.2434   -725.71897 
  213000    3495.5182   -8482.8514    739.78277   -7743.0687    323.84873 
  214000    3272.1221   -8348.6194    692.50379   -7656.1157    1024.3559 
  215000    3120.0134   -8534.7117    660.31188   -7874.3999   -746.63029 
  216000    3358.6807   -8374.5631    710.82284   -7663.7403    725.76637 
  217000     3326.627   -8451.1819    704.03906   -7747.1428    1089.0876 
  218000    3045.4243   -8524.7753    644.52602   -7880.2492    1447.5807 
  219000    3809.1496   -8537.1339    806.15895   -7730.9749   -1087.6318 
  220000    3335.5451    -8487.402    705.92647   -7781.4756    219.48644 
  221000    3481.0406   -8481.6511    736.71879   -7744.9323    1146.0172 
  222000    3702.2767   -8429.9813    783.54063   -7646.4406   -1603.1353 
  223000    3724.8195   -8518.6854    788.31154   -7730.3739    837.09024 
  224000    3246.6266   -8382.0038    687.10797   -7694.8959    1458.3349 
  225000    2781.0395   -8568.6958    588.57229   -7980.1235    157.63393 
  226000    3066.3242   -8457.3385    648.94923   -7808.3893   -2824.1551 
  227000    4005.7383   -8414.9706    847.76449   -7567.2061    658.60546 
  228000    4213.7552   -8393.1554    891.78868   -7501.3668   -1315.3209 
  229000    3785.7797   -8517.3814    801.21299   -7716.1684   -42.447763 
  230000     3733.637   -8514.2325    790.17766   -7724.0548   -739.15346 
  231000    3917.8555    -8535.564     829.1652   -7706.3988    -668.9779 
  232000     3280.159   -8416.5506     694.2047   -7722.3459   -2154.5079 
  233000     3429.673   -8464.9206    725.84746   -7739.0731    797.68408 
  234000    3657.6715   -8396.2672     774.1005   -7622.1667    -1937.102 
  235000    3301.4616   -8478.4572    698.71312   -7779.7441   -1532.5112 
  236000    3222.7629   -8396.6022    682.05753   -7714.5447   -568.26806 
  237000    3750.4897   -8526.2255    793.74432   -7732.4812   -223.70427 
  238000    3583.6467   -8490.1969    758.43408   -7731.7628   -525.85098 
  239000    3329.7046   -8415.9329     704.6904   -7711.2425    2141.6623 
  240000     3507.827   -8606.7121    742.38779   -7864.3243   -438.05987 
  241000    3589.0101    -8511.406    759.56918   -7751.8369   -854.50357 
  242000    3608.5319   -8380.0651    763.70071   -7616.3644   -498.98447 
  243000    3341.3311   -8449.3013      707.151   -7742.1503    1327.0973 
  244000    3159.4396   -8456.5761    668.65593   -7787.9202   -344.93382 
  245000    3945.3382   -8582.4247    834.98156   -7747.4431   -117.12726 
  246000    3527.7576   -8488.9428    746.60585    -7742.337   -478.43751 
  247000    3545.3916   -8525.0455    750.33785   -7774.7076   -3386.3407 
  248000    3157.9552   -8540.5355    668.34179   -7872.1937    1699.6753 
  249000    3670.0125   -8563.5364    776.71232   -7786.8241   -1755.4419 
  250000    3846.7122   -8534.2539    814.10861   -7720.1453   -53.861608 
  251000    3174.2525   -8490.5622     671.7909   -7818.7713    1036.1076 
  252000    4000.7264   -8402.3191    846.70378   -7555.6153   -636.95844 
  253000    4024.2632   -8479.1611    851.68505   -7627.4761   -234.17605 
  254000    3320.4547   -8504.2237    702.73278   -7801.4909    116.20552 
  255000     3645.894   -8533.1456    771.60795   -7761.5377     1115.252 
  256000    3427.8152   -8459.5665    725.45429   -7734.1122    127.04645 
  257000    3560.6332   -8442.0619    753.56357   -7688.4984   -2987.7513 
  258000    3730.7578   -8438.1446    789.56831   -7648.5762   -457.62242 
  259000    3362.3177   -8504.0376    711.59256    -7792.445    1367.9056 
  260000    3114.1469   -8592.5216    659.07032   -7933.4513   -880.84862 
  261000    3522.8742   -8438.0089    745.57234   -7692.4365   -618.84081 
  262000    2905.3154   -8369.6204    614.87372   -7754.7467    354.75316 
  263000    3444.6278   -8349.5542    729.01246   -7620.5417    637.20063 
  264000    3427.8943   -8483.5543    725.47102   -7758.0833    1991.5817 
  265000    3644.0706   -8491.9542    771.22204   -7720.7321   -1343.4722 
  266000    2977.0088   -8510.9235    630.04674   -7880.8768   -1267.2423 
  267000    3718.7668   -8352.3476    787.03056    -7565.317   -245.16724 
  268000    3911.0307   -8245.2423    827.72082   -7417.5215     1782.945 
  269000     2985.198   -8413.3297    631.77989   -7781.5498   -957.77994 
  270000    3510.9158   -8260.7499    743.04149   -7517.7084   -444.51387 
  271000    3710.9625   -8331.6163    785.37888   -7546.2374   -605.19053 
  272000     4238.309   -8300.2079    896.98517   -7403.2227    621.72631 
  273000    3326.1045   -8375.4305    703.92849    -7671.502    239.66087 
  274000    3426.0211   -8252.7258    725.07459   -7527.6512    2996.5219 
  275000    3431.8292   -8357.1009     726.3038   -7630.7971     1011.487 
  276000    3616.5699    -8270.249    765.40186   -7504.8471    389.96649 
  277000    3863.3218   -8423.0563    817.62383   -7605.4325    870.38658 
  278000    3614.5527   -8321.5175    764.97495   -7556.5426   -132.35129 
  279000    3608.2503   -8328.8448    763.64113   -7565.2037   -1656.6282 
  280000    3253.6888    -8296.028     688.6026   -7607.4254   -894.91074 
  281000    3419.8485   -8236.5546    723.76824   -7512.7863   -3308.8449 
  282000    3347.2263   -8284.8377    708.39866    -7576.439    908.49731 
  283000    3251.4118   -8345.2349    688.12071   -7657.1142    1806.2683 
  284000    3271.4741   -8263.8117    692.36665   -7571.4451     1025.877 
  285000    3729.9689   -8328.3418    789.40134   -7538.9405    122.70086 
  286000    3799.8176   -8348.6315    804.18395   -7544.4476   -237.68302 
  287000     2813.342   -8319.0209    595.40871   -7723.6122    400.66512 
  288000    3037.2358   -8316.2009    642.79303   -7673.4078   -581.67017 
mpirun: Forwarding signal 18 to job
slurmstepd: error: *** JOB 267119 ON node20-111 CANCELLED AT 2019-09-09T18:31:10 ***
