ITEM: TIMESTEP
10000
ITEM: NUMBER OF ATOMS
576
ITEM: BOX BOUNDS pp pp pp
-1.2000000000000000e+01 8.4000000000000000e+01
-1.2000000000000000e+01 3.6000000000000000e+01
-1.2000000000000000e+01 3.6000000000000000e+01
ITEM: ATOMS id type x y z vx vy vz 
25 2 6.9265 -8.38375 4.56981 -0.0346107 -0.0655104 0.0262063 
13 1 7.53267 -7.897 5.3433 -0.000272254 0.00145005 0.0134317 
27 2 8.75327 -9.80446 5.40475 0.0804215 0.0359181 0.0173802 
15 1 8.82987 -8.65241 5.31073 0.00207582 -0.0212878 0.000561622 
28 2 11.5996 -9.84428 5.40062 -0.037524 0.051805 0.0168304 
16 1 11.6687 -8.79752 5.48834 0.0190907 0.00777192 -0.00422969 
8 1 10.2129 -8.29949 5.40676 0.0193984 -0.0147526 0.00335051 
11 1 10.7256 -2.78385 6.03915 -0.00583574 -0.00262317 0.014284 
7 1 7.82122 -6.63925 5.86069 -0.00148279 -0.0130969 -0.00320173 
2 1 10.3256 -6.70615 5.72815 0.0231815 -0.0393434 -0.00475831 
34 2 11.9513 -1.11874 6.25945 0.0977684 0.0163893 0.0359393 
14 1 6.64012 -5.77223 6.14326 0.032925 0.0291895 0.0249694 
17 1 6.90135 -4.31137 6.36996 0.0113812 -0.0212043 0.0334143 
26 2 5.91284 -5.63558 5.32467 -0.0200569 -0.0808187 -0.0752243 
9 1 8.35584 -3.91497 6.64477 -0.0122363 0.0128078 -0.0100817 
18 1 8.43533 -2.41552 6.57682 -0.00325515 0.0135279 -0.0147332 
3 1 9.33466 -4.7363 6.11462 -0.0175258 0.0140737 0.00928691 
1 1 9.25287 -6.12166 6.1935 0.0234977 0.0105465 0.00602382 
5 1 10.5282 -4.12444 5.62203 0.0199015 0.013294 0.0139882 
6 1 11.7121 -4.7657 6.0625 0.0249132 -0.0390703 0.0147992 
4 1 11.5934 -6.12649 6.04541 0.0130639 -0.00840576 0.0173943 
33 2 9.55385 -1.02689 5.25953 -0.00454755 0.0240092 -0.0293279 
22 1 11.9756 -2.11262 6.48815 0.0287086 0.00609168 0.0176244 
30 2 7.5974 -1.63933 6.43906 -0.0682793 -0.102652 -0.00665494 
29 2 6.08465 -3.95972 7.10015 0.0487046 0.0146665 -0.00917597 
21 1 9.49618 -2.00172 5.75101 0.0278781 -0.00789001 0.00469329 
320 2 8.67056 -5.16161 16.415 0.00195815 -0.0209582 -0.06427 
308 1 9.16878 -6.18326 15.9983 0.0330991 0.0157922 -0.0240771 
298 1 10.6154 -6.25119 15.8873 0.0389288 -0.0143433 -0.0204293 
293 1 11.9375 -9.15158 17.5651 0.0243242 -0.0347138 0.00649219 
294 1 11.0016 -8.42671 16.7109 0.0181108 0.00120467 -0.00157674 
292 1 11.5826 -7.13027 16.2202 0.0304945 0.0223024 -0.00151471 
311 1 8.77653 -7.36627 16.7014 0.015242 4.15623e-05 0.00239316 
319 2 10.8257 -3.99397 15.1252 0.0780933 0.00993248 0.0377856 
307 1 11.2332 -4.96247 15.3545 0.00215226 -0.0145683 -0.0142902 
324 2 8.14565 -10.0367 16.7548 0.0634245 -0.00937448 -0.0281743 
310 1 9.93431 -10.3578 18.4581 -0.00124831 0.0249939 0.00201715 
312 1 8.88291 -9.74051 17.6872 0.00221089 0.00123074 -0.0265828 
300 1 9.47627 -8.55591 17.0391 0.0132201 -0.00530607 -0.0102933 
323 2 7.67191 -8.32497 16.784 -0.0587587 -0.0203415 -0.105875 
299 1 11.4451 -10.4442 18.0067 0.0141003 -0.00340737 -0.00907788 
359 2 11.867 -8.81874 23.9926 -0.0371303 0.0112539 -0.0416915 
322 2 9.54288 -10.9785 19.1723 -0.0380971 0.0447443 0.0837846 
211 2 3.5596 28.9495 -7.79841 -0.0668831 -0.0815703 -0.0419513 
190 1 5.10429 27.4875 -6.9061 -0.00330577 -0.00343042 -0.0166444 
199 1 4.81368 28.6342 -7.81075 -0.0510889 0.00742773 0.00914588 
196 1 5.70015 28.8987 -8.81017 -0.0146892 -0.00602907 0.000342979 
208 2 5.73555 29.5967 -9.68168 0.0109065 -0.0495473 0.00863082 
182 1 7.4269 28.2253 -6.96569 -0.0275041 0.00524214 0.00580791 
188 1 7.12489 28.8869 -8.27242 -0.0444471 0.00637912 0.0108965 
207 2 8.1056 30.8446 -9.08572 -0.10321 0.0577209 0.0237079 
195 1 8.19321 29.9513 -8.3517 -0.0385838 0.0202214 0.0258448 
193 1 9.58954 29.4304 -8.1461 0.0126525 -0.00962277 -0.00954539 
187 1 9.98584 28.4138 -7.27702 -0.0289107 0.0166313 -0.00420146 
175 2 -2.30909 17.5955 -5.1019 -0.019947 -0.0448543 -0.0183151 
171 2 -6.10234 20.6225 -3.98637 0.0842174 0.0304398 0.0453338 
145 1 -3.61882 22.8702 -3.3335 0.0183477 0.0041704 0.00851942 
150 1 -0.678094 21.8541 -3.78377 -0.000510521 0.0163232 -0.000870483 
146 1 -3.08679 21.6184 -3.76641 0.0138795 0.0256174 -0.0029058 
148 1 -1.76236 21.1925 -4.40235 -0.00651639 0.0110175 -0.0209197 
157 1 -5.72581 21.9806 -2.83488 0.0104027 -0.00160739 0.00522546 
159 1 -5.13255 21.0469 -3.6008 0.0212993 0.00169653 -0.0090823 
152 1 -3.81708 20.4494 -3.75331 0.0115256 -0.022614 -0.0215864 
160 1 -3.61145 18.9304 -4.19778 0.018645 0.000490092 -0.0211268 
154 1 -1.58483 19.9095 -5.1748 -0.0117438 -0.0021663 -0.014506 
149 1 -1.08401 23.2744 -3.32821 -0.00714709 0.0121783 0.0139053 
172 2 -4.63658 18.4413 -4.08025 0.0202573 0.0282298 -0.0451537 
163 1 -2.35879 18.7739 -4.59607 0.00768615 -0.00713569 -0.0142172 
176 2 0.53935 18.8153 -6.02364 -0.107912 0.0865678 0.0225171 
164 1 -0.0909564 19.6682 -5.36777 0.0140517 -0.00985159 -0.0356382 
147 1 -2.40073 23.6523 -2.80526 0.020304 -0.030377 0.025672 
151 1 -4.76385 22.9924 -2.28651 -0.00717152 -0.0111661 -0.00175152 
169 2 -6.70551 21.8658 -2.81709 -0.0373137 -0.00848123 -0.0324127 
155 1 0.0269868 23.9509 -2.88669 -0.0143099 -0.0144433 0.00960841 
166 1 1.39519 23.4772 -3.03783 8.36792e-05 0.0118112 -0.0150243 
178 2 2.20539 23.725 -2.34718 -0.0350428 -0.0437869 0.0623896 
168 1 1.67329 22.7821 -4.29009 -0.0377491 0.0161535 -0.0026055 
180 2 2.58087 22.4974 -4.87816 -0.0275042 0.0113275 0.0542495 
156 1 0.609533 21.7664 -4.41703 -0.0286052 0.0355996 -0.0290048 
167 1 0.883133 20.3766 -5.06462 -0.0329864 0.0173084 -0.0119828 
179 2 1.97125 20.1807 -5.54352 0.0578393 0.0629386 0.0382195 
214 2 7.60653 24.2446 -1.80226 -0.0811876 -0.0231139 -0.0191451 
174 2 -1.72909 26.4835 -1.14976 0.0105204 0.04211 -0.0797339 
170 2 -5.31476 23.3068 -0.186098 0.0224311 -0.0730111 0.0609166 
173 2 -3.36744 25.8228 -0.801912 0.0265512 -0.0936455 0.0485758 
153 1 -2.41035 24.4515 -1.50852 0.0202063 -0.0256594 -0.00819991 
158 1 -4.60588 23.6088 -0.98465 -0.0257439 -0.0375382 0.0219904 
161 1 -3.68442 24.76 -1.0821 -0.0154552 -0.00273238 0.0283738 
162 1 -1.42814 25.6075 -1.82613 -9.37239e-05 -0.0210893 -0.030104 
165 1 -0.38832 25.3596 -2.74039 -0.0168565 -0.00673314 0.0140202 
177 2 0.0832052 26.2506 -3.04837 -0.0294851 -0.05869 0.0454602 
216 2 4.91787 24.994 -2.75901 0.0100482 0.0444661 0.0562835 
215 2 3.39209 25.5278 -4.41657 -0.019081 0.0219704 0.029354 
203 1 4.39058 26.1067 -5.00756 -0.0176651 -0.0113685 -0.0181965 
200 1 4.0223 26.9053 -6.12531 -0.0100548 0.0053013 -0.0291305 
212 2 3.03553 27.1382 -6.85314 -0.0864675 -0.0125243 -0.0125654 
213 2 10.0127 24.1116 -3.08743 0.0454601 -0.00343811 -0.00995144 
204 1 5.92224 24.9686 -3.35406 -0.0171009 -0.0117258 -0.0109621 
202 1 7.19047 24.4505 -2.89781 -0.00350351 0.0190082 0.00315936 
192 1 5.74962 25.7992 -4.61039 -0.021376 -0.00153838 -0.00771293 
186 1 6.83258 26.7138 -5.14409 -0.0128414 0.0101453 0.00454915 
191 1 8.06787 25.0237 -4.01269 0.000681355 -0.0223547 -0.0133573 
184 1 6.39476 27.6411 -6.24871 -0.00727091 0.00785099 -0.0124152 
185 1 7.9227 26.1168 -4.83108 -0.00716253 -0.00134341 -0.0106944 
201 1 9.48307 25.0386 -3.62436 -0.0148393 -0.00434782 0.0139425 
183 1 9.00118 26.829 -5.64414 -0.00427857 0.00016851 -0.00716034 
181 1 8.76136 27.8571 -6.63349 -0.016677 -0.00374544 -0.0369935 
198 1 10.4135 25.6962 -4.20399 -0.0217182 0.00448556 -0.0351166 
189 1 10.3049 26.9169 -5.2772 -0.00968845 0.00579668 -0.0160141 
458 2 4.57218 20.1863 -11.0903 -0.0420409 0.0118634 0.0557563 
194 1 11.3986 28.4331 -6.82137 -0.0343672 0.0225935 -0.0263123 
205 2 10.4316 30.0904 -8.45679 -0.0459584 -0.0925641 -0.0211923 
461 2 1.97372 19.5751 -10.9409 -0.0285823 0.0421931 0.0822927 
210 2 11.3653 25.3799 -3.67485 -0.00513534 0.0441602 0.00908684 
446 1 3.85963 20.6337 -11.7673 0.00544555 -0.00137981 -0.00348635 
197 1 11.2462 27.9384 -5.516 -0.0347393 0.0329455 0.0148978 
449 1 2.51883 20.3499 -11.5584 0.026622 -0.00641318 0.0176632 
457 2 5.47013 22.1278 -11.4144 0.0900644 0.000720814 0.00452446 
463 2 4.59458 27.8266 34.2276 -0.0143993 0.01369 0.050777 
450 1 0.424287 20.6668 35.0394 -0.008876 -0.0150578 0.00453063 
453 1 -0.692335 21.2923 34.4912 -0.00310107 -0.0153717 0.0101407 
465 2 -1.49064 20.7383 34.2467 -0.0218334 -0.0707648 -0.000108407 
443 1 -0.302276 22.7645 34.0676 -0.0276852 0.00595469 0.00458216 
466 2 -2.43441 23.3883 33.808 -0.0258622 0.00887207 0.0361613 
441 1 1.5305 21.1655 35.7638 0.011069 0.0077436 0.0131526 
444 1 0.415757 25.0776 33.0866 -0.0186156 -0.0211775 -0.0230103 
434 1 3.76824 23.6415 33.8072 0.0180434 0.00862368 -0.00394441 
451 1 4.56438 26.7643 33.963 0.0101349 -0.0406059 0.0180283 
435 1 2.01873 22.2334 34.8699 0.021367 0.0233361 0.0238073 
462 2 0.0793731 19.7552 35.6327 0.0397946 0.031895 -0.0919918 
460 2 6.42834 25.966 34.5395 -0.0472343 0.0379217 -0.0247389 
433 1 3.37556 22.589 34.4548 0.0136693 0.000742277 0.0136928 
439 1 4.06523 21.731 35.4354 -0.0115092 0.0116485 0.0107395 
448 1 5.47536 25.6586 33.8777 -0.0271019 0.00138161 0.0238865 
445 1 5.40624 22.4751 35.3228 0.00357155 0.0127153 0.0120146 
447 1 6.08005 23.467 34.4274 0.015005 -0.00182456 0.0193479 
437 1 1.13236 22.8726 33.9076 -0.00271591 -0.0106217 0.00761192 
459 2 6.97583 24.089 34.6163 0.0714756 0.0303186 -0.0603651 
468 2 -1.6211 25.8155 32.6872 0.0190112 0.0164895 0.00947341 
454 1 -1.29926 23.6762 33.665 0.0340394 0.00117746 0.0241096 
456 1 -1.02394 24.9332 33.1529 -0.00853701 -0.00161668 0.0277305 
464 2 2.38054 27.7514 33.4669 -0.0224104 0.110502 -0.017707 
440 1 5.0954 24.28 33.7341 0.00468534 0.0173549 0.0100744 
436 1 2.86513 24.7333 33.5282 -0.00123454 0.0201987 0.0306054 
438 1 1.52988 24.1167 33.3129 0.00736096 -0.000969438 0.0299629 
442 1 3.3459 25.986 33.6323 0.00287895 -0.0224713 0.0114295 
452 1 2.06919 26.63 33.4119 -0.00049876 0.00197858 0.00458386 
455 1 1.13928 26.2127 32.4748 0.00217762 -0.0120267 -0.00526751 
467 2 0.876082 27.1417 31.9121 -0.0129841 0.0416611 0.0112288 
59 1 33.2457 -4.54231 -0.840306 0.0395899 0.00294723 0.0153913 
46 1 35.1387 -2.8122 -1.06804 0.022943 0.00754477 -0.00798786 
19 1 12.7662 -8.16662 5.1813 -0.000222849 -0.0234365 -0.00861878 
56 1 34.3728 -3.99596 -1.39985 0.00138706 0.00750787 -0.0239706 
68 2 35.0457 -4.80226 -1.77829 0.0110041 -0.0332765 -0.0946219 
71 2 32.7361 -5.41576 -1.34322 -0.0866558 0.0189668 0.0490346 
31 2 13.6634 -8.64707 4.97579 0.0107228 0.00983612 -0.0521952 
36 2 13.7141 -2.03065 7.49724 -0.0395773 0.0216186 0.033605 
32 2 14.9807 -7.26609 6.18669 0.0499759 -0.0646638 -0.0455674 
35 2 14.8041 -4.72332 7.59013 0.11885 0.0327487 0.0214712 
23 1 14.1152 -5.11532 6.77847 -0.0107857 -0.0204405 -0.00140815 
20 1 14.1485 -6.41788 6.0834 0.0263739 -0.00155123 0.0192443 
72 2 30.4836 -4.40012 0.0920044 0.0225517 -0.0326369 -0.0329779 
70 2 29.5969 -3.14885 2.26691 0.0691639 0.0306188 0.0470367 
58 1 30.5782 -3.04151 1.75764 0.0290665 0.00281934 -0.0130873 
69 2 29.6753 -0.606772 2.6071 -0.0739318 0.0225089 0.0378815 
57 1 30.721 -0.47401 2.75571 0.00750291 0.00120311 0.0284079 
38 1 35.4306 -0.831085 0.635204 0.00793861 0.0052684 0.00408559 
10 1 12.7319 -6.77413 5.46352 0.0267788 -0.0152802 0.0158617 
60 1 31.3366 -3.76697 0.611366 -0.0119501 0.0140482 0.000821551 
47 1 31.3103 -1.71599 1.91507 0.0249504 0.0168849 -0.0125406 
41 1 32.5506 -1.24473 1.35067 0.0521429 -0.0118341 -0.0113055 
48 1 32.7282 -3.58633 0.224177 0.00809458 -0.00899303 -0.0199347 
40 1 34.6795 -2.03349 0.180315 -0.00035785 -0.0181619 0.00311743 
42 1 33.2724 -2.167 0.448924 0.0190308 0.0313737 0.0125763 
37 1 34.8552 -0.370615 1.79438 0.00999589 -0.00378054 -0.0116358 
39 1 33.4263 -0.575579 2.25385 0.000991216 0.0193566 -0.0200005 
66 2 30.9985 1.12153 4.14647 -0.0330425 0.044662 0.0126982 
62 2 35.5634 2.52754 3.822 0.0103712 0.00757572 -0.00461946 
24 1 12.8938 -2.88539 7.17889 0.00855107 -0.0129388 -0.0127796 
43 1 35.9689 0.646742 2.62375 0.0225223 -0.0304771 0.00558596 
45 1 32.9063 0.521926 3.10305 0.0265541 -0.0219517 -0.0184331 
54 1 31.4026 0.428384 3.57239 0.02391 -0.00310398 0.0158943 
65 2 33.0744 2.29599 4.02474 -0.020447 -0.0520453 0.0205565 
53 1 33.6815 1.55912 3.58467 -0.0136443 -0.00550024 0.0200825 
50 1 35.0999 1.63194 3.31909 -0.0239374 -0.022402 0.0321106 
12 1 12.8855 -4.25916 6.74437 0.0187473 -0.00936207 0.0245265 
289 1 13.9134 -7.77584 16.6814 -0.00548198 0.0208821 -0.0229175 
309 1 12.237 -11.6888 18.2272 -0.0121638 -0.0193222 0.00229432 
297 1 14.1848 -10.1534 17.5947 0.00160797 -0.00127645 0.00615684 
302 1 15.9986 -8.69424 17.3612 0.0121341 -0.0362979 -0.0337455 
291 1 13.4142 -8.98797 17.4831 0.022777 -0.00510254 -0.0187556 
295 1 15.2587 -7.48742 17.0743 -0.00830777 -0.0182099 -0.00873939 
315 2 15.3458 -4.84056 14.7395 -0.0681894 -0.0413728 -0.0503097 
318 2 14.2985 -12.1775 18.8227 0.0751402 -0.110144 -0.067038 
317 2 16.2735 -10.6387 18.051 0.0434673 -0.0406077 0.0418971 
306 1 13.6847 -11.3766 18.1594 -0.0156169 -0.0167763 0.00371225 
357 2 16.4001 -11.8628 20.7523 0.029385 0.0399478 0.0325975 
345 1 16.4378 -10.8459 20.9128 0.00639329 -0.0200889 0.0259952 
342 1 17.2777 -10.1682 20.0184 0.00324989 -0.00907309 0.0157586 
358 2 14.1648 -11.4049 21.5933 0.0653159 -0.0498012 0.0230127 
335 1 15.6705 -10.3208 22.0668 -0.00374192 -0.0173749 -0.00466047 
329 1 15.9366 -9.01654 22.5465 0.0192974 -0.00392349 0.0212513 
327 1 17.115 -8.24813 21.9477 -0.0185766 0.00747735 0.0097359 
346 1 14.2449 -10.6717 22.278 0.0142258 -0.0151749 -0.00464971 
348 1 13.367 -10.2348 23.2088 0.00459778 -0.0239595 -0.0278327 
336 1 13.8126 -8.92736 23.6767 -0.0245161 -0.00784358 -0.00596096 
330 1 14.9978 -8.25577 23.3882 -0.0213609 -0.0139969 -0.0195894 
354 2 18.0098 -9.91231 19.2057 -0.0167525 0.0294486 0.0262949 
333 1 17.7088 -8.8274 20.6713 0.0121634 -0.00451403 -0.012034 
305 1 15.5347 -9.90495 17.8343 0.00981762 -0.0274892 -0.00123907 
325 1 17.0705 -6.87764 22.0213 -0.0119241 -0.0367568 0.00931125 
360 2 12.3894 -10.7242 23.5176 -0.0386832 -0.0919485 -0.04372 
350 2 20.2114 -6.27397 20.2869 -0.0407274 0.0351542 -0.0264883 
338 1 19.2457 -6.72973 20.6776 -0.0194796 0.00338861 0.0114387 
341 1 18.6144 -7.96809 20.0839 -0.0215356 0.0114854 0.011811 
353 2 19.4905 -8.54127 19.4971 0.026837 0.0495204 0.00850725 
331 1 18.2009 -6.08309 21.4405 -0.0286355 -0.0142518 0.0123189 
314 2 16.9867 -8.43714 17.1855 0.156071 -0.0270933 0.0332398 
328 1 15.2169 -6.96253 23.732 -0.0193206 -0.0121473 -0.00783643 
326 1 16.0555 -6.20965 22.8908 -0.000628195 0.0143071 0.0176075 
332 1 16.1296 -4.91471 22.9942 -0.00497498 -0.0176127 -0.00548901 
313 2 16.5151 -5.8622 16.6809 -0.0531128 -0.123851 -0.0567796 
301 1 15.6795 -6.29462 16.2283 0.0154824 -0.0189119 -0.0297955 
349 2 19.524 -4.62693 22.4234 -0.0109013 -0.0151854 -0.0670401 
337 1 18.5522 -5.01631 22.4565 -0.00197345 0.0046233 -0.0252391 
339 1 17.3848 -4.60759 23.1349 -0.00842104 0.00705731 -0.0261221 
351 2 17.7446 -3.58478 23.626 -0.0517024 -0.0286331 0.0551469 
347 1 12.8016 -8.22584 24.027 -0.0064432 0.00206299 0.0380057 
316 2 12.7754 -3.70333 14.3153 -0.00539725 -0.0159535 -0.0232267 
344 1 12.8436 -6.95946 24.5824 -0.0204015 -0.00499253 -0.0151337 
356 2 12.2229 -6.2257 24.7196 -0.0334795 -0.0144801 -0.0252525 
334 1 14.1816 -6.20066 24.2545 -0.0171123 -0.013354 -0.0263268 
343 1 13.9662 -4.66853 24.1001 -0.0156999 -0.0293381 0.0178251 
355 2 12.976 -4.43433 23.6404 0.0441454 0.0475813 -0.0904791 
340 1 15.1268 -4.19914 23.4126 -0.0156279 -0.0257027 0.00666199 
352 2 14.9737 -3.08236 23.2558 -0.068169 -0.00439346 -0.0952631 
303 1 14.9368 -5.63818 15.1765 0.0296932 -0.0436468 -0.0231374 
296 1 13.6793 -5.78794 15.1966 0.0227257 -0.00344659 -0.0102791 
290 1 13.1113 -6.74722 16.0878 0.00787162 0.00324713 -0.0104901 
304 1 12.6588 -4.70102 14.9099 0.0461771 -0.0131076 0.0151474 
209 2 12.163 28.0776 -4.884 -0.00169732 0.0178542 0.0106378 
206 2 11.9044 29.2504 -7.44531 -0.0162358 0.0464696 -0.0151832 
493 2 30.6499 28.9987 16.9815 0.0380026 -0.0195261 0.00408426 
495 2 29.6384 31.2749 17.9805 0.0532403 -0.0688069 -0.10062 
481 1 29.9353 29.0705 17.8431 0.024804 -0.00045714 0.00211121 
483 1 29.3922 30.3594 18.3942 0.0338517 0.00855171 0.0210992 
494 2 30.6738 26.1335 17.3891 0.0778014 -0.102551 0.0422474 
504 2 23.9794 26.9472 23.6115 -0.069834 -0.018116 -0.00468584 
498 2 28.7171 23.8408 20.5775 -0.093188 0.0678513 0.00616251 
476 1 28.3754 30.4725 19.2932 0.0172631 0.0162627 0.00420234 
478 1 25.5656 30.2548 20.2664 -0.0145102 0.0293703 -0.00695425 
475 1 29.6405 27.958 18.6178 -0.001977 0.0240517 -0.0166074 
470 1 27.7613 29.0806 19.7606 0.00557994 0.0104172 0.00596106 
482 1 30.1 26.5469 18.2516 0.0141175 -0.000913877 0.0044413 
485 1 29.9563 25.6896 19.3724 0.0113499 0.0170359 0.00289646 
477 1 28.9227 25.9442 20.2772 -0.0158972 -0.00396518 -0.0304994 
489 1 27.5803 24.6171 22.0638 -0.0089005 -0.0133815 -0.0136991 
469 1 28.3859 27.9664 19.5382 0.0264266 -0.00570957 0.0083907 
471 1 27.9591 27.0275 20.3953 0.0134626 -0.0104811 -0.00592711 
479 1 26.8469 25.8306 22.3661 -0.00236076 -0.0125865 0.0204683 
473 1 27.1737 27.0054 21.6121 0.00462272 0.00294953 0.000554622 
474 1 26.4039 28.2408 21.7138 -0.00615844 -0.00290578 -0.0190521 
472 1 26.6683 29.1903 20.633 0.001209 0.003584 -0.0103369 
488 1 25.0495 30.7989 21.594 -0.0087083 -0.00942556 -0.0331377 
480 1 25.2038 28.1998 22.5576 -0.00223614 0.0126174 -0.0211465 
486 1 28.3637 24.734 20.9888 -0.016663 -0.00100107 0.0142202 
501 2 27.1947 23.5184 22.4389 -0.000695947 -0.013831 -0.0616806 
491 1 24.7172 29.7162 22.5739 0.0167977 0.0170158 -0.00647321 
497 2 29.948 24.5423 19.4106 -0.0409613 0.0541862 -0.0592493 
500 2 24.9183 31.9431 21.7038 -0.0441035 0.00161875 -0.0191251 
496 2 27.4088 32.013 17.7825 -0.0134717 0.0139416 -0.00982737 
484 1 27.4555 31.4331 18.6193 0.0163506 0.00367674 0.00141966 
487 1 25.9924 31.1496 19.0486 0.0175153 0.0213812 0.0280624 
499 2 25.1898 30.7927 18.4549 -0.00209325 -0.0278962 0.0390915 
490 1 25.9158 25.9214 23.5074 -0.0134565 0.00452502 -0.0301894 
502 2 26.3731 25.6694 24.5096 -0.0291063 0.00574314 0.0552254 
492 1 24.9187 27.0577 23.5064 -0.0078657 0.0141497 -0.0106081 
503 2 24.1491 29.9065 23.5076 0.0164137 -0.0208383 0.0349783 
321 2 12.2585 35.9569 19.2108 -0.0114984 -0.0109921 0.0837756 
108 2 42.8899 8.20371 -8.99109 0.0530166 -0.0327304 0.0259776 
96 1 43.3467 8.11511 -7.96786 4.32874e-06 -0.00344839 0.00619939 
106 2 42.8583 6.59905 -8.68866 0.0594332 0.027987 0.0324357 
94 1 43.1161 6.84742 -7.58988 -0.00174835 0.00977748 -0.0144 
107 2 43.2508 10.356 -8.11153 0.0223787 0.101636 -0.0914685 
95 1 43.8099 10.3976 -7.10833 -0.0126315 0.0142987 -0.0121702 
64 2 38.4101 -2.35771 -0.524494 -0.0438305 0.0758828 -0.0634271 
52 1 37.3199 -2.25333 -0.264998 0.00418069 -0.0138312 -0.00627878 
67 2 36.9937 -3.01157 -2.35372 0.0305136 -0.0893633 0.00962373 
63 2 38.9901 -0.336268 1.39138 0.032453 -0.028167 0.0631934 
75 1 44.6387 6.50822 -3.83456 -0.0260402 -0.00438279 -0.0478971 
77 1 44.07 6.96871 -5.03348 -0.0157318 0.0246203 -0.0208258 
83 1 43.551 6.20939 -6.21341 0.00374057 -0.00834501 -0.000332168 
90 1 44.5674 4.22108 -5.00211 -0.0202335 0.0083521 -0.0070258 
93 1 43.8647 4.82382 -6.08609 -0.0159562 0.0334606 -0.013543 
105 2 43.2716 4.27494 -6.87726 -0.0243749 0.0569334 -0.0683866 
81 1 44.748 4.93063 -3.86727 -0.0405516 0.0125303 0.0154633 
102 2 44.5338 3.08216 -5.37251 -0.0456301 -0.00641294 -0.0414109 
89 1 45.0547 4.38755 -2.54972 -0.0405354 0.00192936 -0.0388048 
101 2 44.6533 3.32935 -2.31179 -0.00858889 0.0347972 0.0894699 
86 1 46.1058 4.87182 -1.90231 -0.0272679 0.00842368 -0.0149907 
78 1 44.1084 8.43253 -5.53197 0.0121064 0.0347124 -0.00912572 
84 1 43.7209 8.90361 -6.79798 0.0120868 0.0228183 -0.0252857 
55 1 36.5696 -2.72845 -1.3374 0.00912583 0.0245117 0.00820865 
76 1 44.7734 9.37058 -4.74449 0.0278775 -0.00321976 0.0216329 
82 1 45.1901 10.7054 -5.29004 0.0313303 0.0243739 0.00235783 
92 1 44.5216 11.2845 -6.42317 -0.00270827 -0.00305329 -0.002814 
49 1 37.3354 0.802093 2.32682 0.0100051 -0.0145688 0.0162945 
100 2 47.5425 11.3949 -2.73493 0.0291615 -0.0620949 -0.0437136 
88 1 46.9024 10.9465 -3.53157 0.0104796 0.000563137 0.00958134 
91 1 45.979 11.5709 -4.34906 0.0257989 0.00913713 -0.0182595 
80 1 46.7978 9.44048 -3.4398 0.0162822 -0.00606171 0.0200403 
74 1 45.5557 8.87176 -3.70443 0.00370546 0.0292119 0.0114871 
73 1 45.5825 7.3739 -3.18925 -0.00345048 0.014464 -0.0050578 
87 1 47.1701 8.70025 -2.37045 0.00924871 -0.00164973 0.00646872 
79 1 46.3206 6.34319 -2.29082 -0.0113941 0.00884927 0.00410215 
99 2 47.8394 9.37913 -1.99285 -0.00672743 -0.0759596 -0.0398051 
97 2 48.4294 7.37692 -1.43235 -0.0711965 0.00509108 0.0123529 
85 1 47.4159 7.2686 -1.88377 -0.0267307 -0.00614767 -0.00790478 
98 2 46.1459 3.9877 -1.11757 0.0271402 -0.0360374 0.0863559 
51 1 37.7956 -0.271893 1.4833 0.0268698 -0.0110211 0.0127701 
44 1 36.9216 -1.23023 0.70181 -0.0108265 -0.00526956 0.00343802 
61 2 37.7174 1.77 2.63569 0.033535 0.0369062 -0.03278 
386 2 39.3018 11.7374 15.4466 -0.0602209 0.0264883 -0.0316094 
374 1 40.0078 11.5755 16.208 -0.00878429 0.0201588 -0.032571 
537 2 47.4929 9.04641 30.4524 0.0654333 -0.0096268 -0.0372148 
538 2 47.9873 10.5792 32.3977 0.0185479 0.0208202 0.0962432 
526 1 48.0596 11.3152 31.6883 0.0133857 -0.0108135 -0.00940189 
377 1 40.4239 10.1816 16.617 0.000385399 -0.0134351 -0.0162284 
533 2 45.0084 10.505 26.2087 0.00212015 0.0419759 0.0378116 
389 2 39.4938 9.77665 16.8234 0.072461 -0.120043 -0.0259759 
390 2 39.8384 8.2042 18.1056 -0.0850708 0.0294901 -0.00509816 
378 1 40.473 8.85439 18.8051 -0.00922218 0.00869667 -0.015483 
369 1 40.6791 10.1595 18.1349 -0.00062741 0.0218587 -0.00550553 
381 1 41.8676 8.77144 19.1796 -0.00671902 -0.0029863 0.00147659 
393 2 42.2235 7.67076 19.4796 0.0187028 -0.0450946 -0.0584621 
394 2 43.5408 8.41131 21.2407 -0.00247662 -0.0066987 -0.0468284 
396 2 45.3749 9.69555 21.5377 -0.0495143 0.0483128 0.0294889 
361 1 41.7436 12.1183 17.3836 -0.00616733 0.0418072 -0.0164842 
363 1 41.3384 11.385 18.5526 -0.00867184 0.00972456 0.00371548 
365 1 42.1609 11.2501 19.7187 -0.0137973 0.0196538 -0.0086116 
515 1 47.6958 10.9754 30.1896 0.0020493 -0.0193179 0.00564342 
518 1 45.9818 11.9843 25.373 -0.00857384 -0.00193279 0.0102295 
372 1 44.5593 11.4694 20.5374 0.0103516 0.00760498 -0.00308131 
382 1 43.3794 9.44158 21.0186 -0.0147127 -0.0119825 -0.0213909 
371 1 42.2245 9.87322 20.1442 -0.00464197 0.0275558 0.0115983 
384 1 44.5938 10.064 20.9848 0.0181088 0.00789666 0.00317805 
521 1 45.8765 11.1725 26.5262 0.0129406 -0.00320355 -0.0203478 
534 2 45.893 8.83939 28.2242 0.0874227 -0.00416192 0.0200873 
522 1 46.7219 9.62238 28.2409 -0.00899393 -0.0132482 0.0316231 
525 1 47.5449 9.7099 29.6687 0.0114955 -0.022837 -0.0187898 
513 1 46.3512 11.0028 27.8862 -0.00154025 -0.0171185 -0.00783401 
248 2 52.2367 27.7081 2.21012 0.0131224 0.0486448 0.0505841 
251 2 54.3559 26.3962 -0.201395 0.0129409 0.0258735 -0.0309101 
244 2 50.9696 23.6989 5.17057 -0.0609324 -0.0677931 0.0122945 
224 1 52.8517 24.5173 5.46402 0.00838567 0.00561577 0.00762982 
231 1 53.0671 23.955 6.70441 0.0369506 0.0126632 0.00683098 
243 2 52.2339 23.3715 7.41884 -0.0778344 0.0224948 -0.0179644 
223 1 55.3928 23.1357 6.38553 -0.000366798 -0.0225962 -0.00248862 
217 1 55.3401 24.4052 5.58141 0.0105939 -0.0152046 -0.00399148 
235 1 51.4657 25.3785 3.57708 -0.0139291 0.0144629 0.00538491 
247 2 50.7843 25.661 2.83175 0.0214425 0.00532541 0.0516564 
232 1 51.4231 24.5601 4.80494 0.0344616 0.0180996 0.0241924 
218 1 54.1438 24.6376 4.78182 0.012528 0.0253125 0.0139954 
236 1 52.8196 26.7789 1.85477 -0.0164127 0.0087947 0.0044567 
239 1 53.9502 26.5502 0.911655 0.0243146 0.0151787 -0.0208605 
226 1 52.6287 25.813 2.80976 0.00220037 -0.00788431 0.00347469 
220 1 54.0092 25.1334 3.442 -0.00298917 -0.0117376 0.00399262 
252 2 56.8871 25.915 -0.380221 0.0762142 -0.0594578 0.0721825 
228 1 55.1367 25.6842 1.24793 0.00836299 0.0236009 0.00926046 
219 1 56.2839 24.588 4.53524 0.0314049 0.00308872 -0.0083593 
222 1 55.212 25.0914 2.55572 0.0139082 -0.0109092 0.0202984 
221 1 56.1939 25.4705 3.30321 -0.0104687 0.00130731 -0.00351878 
240 1 56.3972 25.5743 0.673154 -0.0170386 -0.00719159 0.0178912 
225 1 57.5591 23.7603 4.59438 0.000119199 0.000976355 0.0167727 
234 1 58.8307 24.4042 4.09756 0.0155726 -0.0107185 -0.00247891 
227 1 57.4389 25.837 2.76022 -0.0179085 0.00173757 0.00576315 
237 1 58.9122 25.3304 3.14755 0.0147147 -0.0337127 0.0205216 
238 1 57.5996 25.9021 1.28351 0.00365015 -0.015601 -0.00819645 
249 2 59.4426 25.8938 2.54693 0.00188816 -0.0217756 0.0124451 
250 2 58.6876 25.9215 1.07247 0.0178526 -0.0939553 -0.0352466 
246 2 59.8776 23.9187 3.79131 -0.0152808 -0.00839691 -0.0573323 
229 1 54.2347 23.1056 7.17563 -0.00720035 0.0205492 0.0108589 
241 2 54.1225 22.3584 7.66168 0.0136147 -0.00838384 0.081407 
242 2 56.7064 21.6473 7.17887 0.0852479 -0.00113922 -0.0484533 
230 1 56.6692 22.4556 6.48391 0.0327084 0.012173 0.00293324 
233 1 57.6572 22.6349 5.5774 0.0353635 0.00299622 -0.0265021 
245 2 58.7045 22.1183 5.57106 -0.0562535 0.0442766 0.0406936 
103 2 45.4516 12.4507 -3.84367 0.0520628 -0.0802784 0.0905317 
104 2 44.6794 12.1437 -7.0886 0.030874 0.0266683 0.0931784 
388 2 44.0433 14.735 15.2482 -0.0504903 0.0440908 0.0397086 
391 2 45.8896 14.4764 17.2178 -0.0774448 0.0818744 -0.0548232 
376 1 43.9258 14.2192 16.2785 -0.017725 0.0312639 -0.00645405 
387 2 41.501 16.0282 15.7696 -0.000211345 0.0253918 0.0797014 
368 1 42.506 14.1242 16.8373 -0.0204032 0.0369315 0.00710827 
375 1 41.4557 15.0041 16.1277 -0.0201301 0.0148305 -0.0087327 
529 2 46.7347 14.0091 24.1672 -0.0246418 0.0005472 0.0401664 
392 2 46.3795 14.3172 19.7273 -0.0783285 0.0124397 0.0634006 
379 1 44.7576 14.4364 17.4051 0.00147477 0.0192936 -0.0342735 
380 1 45.5786 13.4533 19.6589 0.0153852 0.0051911 0.0231257 
370 1 44.5214 14.0828 18.9021 -0.00198336 0.0256335 -0.0077882 
373 1 40.6243 14.0595 15.7137 -0.0249109 0.0207698 -0.0076942 
385 2 39.6286 14.3159 15.4188 0.0153418 0.0633109 -0.0369488 
517 1 46.518 14.3833 25.141 -0.0124301 0.00976361 -0.0165846 
531 2 45.2934 16.1439 25.1526 -0.00418887 0.0738371 -0.0430435 
519 1 45.9382 15.5378 25.7747 -0.00926522 -0.014195 0.0065757 
395 2 46.269 12.2255 21.6827 -0.0352539 0.0190163 -0.0380043 
511 1 46.7177 13.0603 25.9383 0.0132018 0.0049746 -0.0040526 
362 1 42.3966 13.285 17.9739 0.0111221 0.00220063 0.00678575 
505 1 47.2684 13.253 27.3891 -0.00699162 -0.0261516 -0.00945772 
507 1 47.2928 12.1899 28.0983 0.00302303 -0.000955924 -0.00381922 
509 1 47.7122 12.2615 29.3606 -0.00935257 -0.00359961 0.0137133 
510 1 47.4712 13.6046 30.0888 -0.00807146 -0.0189798 0.00868612 
506 1 46.8752 14.5027 27.8195 0.00218583 -0.00217336 2.54094e-05 
512 1 46.7394 15.7886 27.0086 -0.0222153 -0.0264475 0.00149417 
508 1 47.1189 14.6596 29.2879 -0.0129429 -0.0190697 -0.00507966 
520 1 47.0255 17.0395 27.6378 -0.0060058 -0.00181281 0.00363911 
523 1 46.9259 17.4118 29.0531 -0.00953073 -0.0143464 -0.00586535 
514 1 47.0107 16.205 29.6972 -0.0143392 -0.0285718 0.0218586 
532 2 46.9685 17.8704 26.8609 0.0323814 -0.0782012 0.0577749 
535 2 47.0028 18.2483 29.7877 0.045035 -0.0682948 0.00137503 
536 2 47.5714 17.0116 31.7458 0.0558277 -0.0466156 0.0452602 
540 2 48.1015 12.6036 33.3405 -0.0363816 -0.0299517 0.0340791 
364 1 43.4134 13.2413 19.1113 -0.00482732 0.00468944 -0.0232253 
383 1 45.5391 12.4667 20.6993 -0.000439196 -9.55808e-05 -0.0112046 
528 1 47.9655 12.559 32.2433 0.0203017 -0.00416035 0.0369343 
527 1 48.2344 15.2217 31.6897 0.0105862 -0.0202527 0.0217578 
516 1 48.1925 13.7997 31.3738 -0.00887943 -0.0181537 0.029546 
524 1 47.2105 16.0898 31.0891 -0.00491221 -0.0148237 0.0167795 
539 2 49.3092 15.694 31.6341 0.0317811 0.0591833 -0.0217321 
367 1 40.8922 12.6525 16.3241 -0.00229071 0.0190609 0.0089369 
530 2 45.5402 11.7343 24.342 0.0860432 -0.077728 0.0282205 
366 1 43.3753 12.1331 19.954 -0.0138083 0.00734349 0.00582107 
139 2 67.3442 -1.42313 7.94828 -0.00394856 0.00207301 -0.0318771 
127 1 68.5859 -1.33121 7.75109 -0.00611597 -0.00762643 0.0378359 
124 1 69.4693 -2.18288 6.99732 0.0313764 -0.0143732 0.0278686 
136 2 69.0702 -3.11182 6.66456 -0.040359 0.104503 0.0726981 
110 1 70.8106 -0.40081 6.10336 -0.00363805 -0.0156474 0.021071 
116 1 70.7131 -1.76586 6.20672 -0.0053878 -0.00146431 0.0200259 
123 1 71.3985 -2.8727 5.53486 -0.0010207 0.0256984 0.0207671 
135 2 70.5791 -3.68084 5.42512 -0.0473678 0.0644651 -0.0298178 
122 1 74.3942 -1.11713 4.64868 -0.0250311 -0.00480391 -0.0241112 
115 1 73.1885 -1.39761 5.28395 -0.0112096 -0.0120365 0.00853227 
109 1 72.1413 -0.409722 5.60937 0.00310084 -0.00906613 -0.00497876 
133 2 72.9277 -3.27903 3.95331 0.0436485 -0.0350645 0.0177032 
121 1 72.5671 -2.71344 4.81479 0.00425392 -0.011637 -0.00632781 
134 2 74.9437 -2.18112 4.40298 -0.0437993 -0.039394 0.0650126 
132 1 69.6344 4.07531 6.35379 9.65434e-05 0.0073083 0.0020161 
144 2 69.6152 5.02748 6.6953 0.0087561 0.0572047 0.025697 
130 1 70.4166 4.01243 5.06109 4.27228e-05 0.0136324 -0.00163556 
120 1 69.4101 2.82919 7.12092 0.00531589 0.00196244 0.0288899 
114 1 70.5052 1.89666 6.55968 0.00972306 0.00478943 0.00889998 
112 1 69.9504 0.691818 6.70075 0.0121438 0.0050262 0.00493576 
113 1 71.6511 1.99479 5.76282 0.0043885 -0.00388692 -0.0117131 
119 1 71.5103 3.21797 5.14714 -0.00211515 -0.00599921 0.0110107 
142 2 70.4037 4.9123 4.48779 0.000186375 -0.0573041 -0.0898479 
117 1 73.3503 1.1144 4.40909 -0.0107419 0.0230605 -0.0052736 
111 1 72.4453 0.888615 5.46811 -0.012036 0.0137366 0.0177417 
125 1 74.3894 0.20061 4.21345 -0.0271179 0.00871597 -0.0046784 
129 1 72.7607 3.32389 4.26556 0.0120923 0.0135037 0.00477955 
141 2 73.4502 4.34612 3.92924 0.0366539 0.03461 0.0355187 
126 1 73.5122 2.26445 3.62254 -0.0274585 -0.00080752 0.0053711 
138 2 74.3362 2.92231 3.00983 -0.0509274 -0.0245172 -0.0381494 
118 1 68.8095 0.273733 7.62309 0.0264268 0.000910128 0.00378018 
143 2 68.3906 3.74446 8.41254 -0.0140803 0.0170877 -0.0356548 
140 2 67.4303 1.35597 8.9868 0.0569209 0.0705946 -0.0457673 
128 1 68.1269 1.40623 8.14283 -0.0145922 -0.0320185 -0.00750028 
131 1 68.5839 2.70081 8.28941 0.015846 0.00793925 0.0159957 
137 2 75.0098 0.769334 3.63258 0.0390011 -0.042988 -0.052383 
430 2 68.6527 0.235513 29.7422 0.0079183 -0.009368 0.00923525 