ITEM: TIMESTEP
70000
ITEM: NUMBER OF ATOMS
576
ITEM: BOX BOUNDS pp pp pp
-1.2000000000000000e+01 8.4000000000000000e+01
-1.2000000000000000e+01 3.6000000000000000e+01
-1.2000000000000000e+01 3.6000000000000000e+01
ITEM: ATOMS id type x y z vx vy vz 
394 2 -9.18926 3.955 -9.80673 0.0561937 -0.00645113 -0.0364391 
382 1 -8.86942 4.60219 -8.82611 0.0205225 0.0258615 -0.0242654 
384 1 -7.59084 4.26039 -8.57335 0.00770778 0.0217621 -0.0283652 
372 1 -6.70952 4.92191 -7.6624 0.033571 0.00854104 0.0280043 
396 2 -7.76686 3.19809 -9.27447 0.0377442 -0.0208475 0.0158216 
371 1 -9.50541 5.78274 -8.38009 0.00117659 0.0108028 -0.00504744 
365 1 -8.76489 6.14148 -7.20712 0.0255892 0.010428 0.00815104 
383 1 -5.50152 4.34269 -7.09516 -0.00745245 0.0319853 -0.00861187 
381 1 -10.7805 6.03473 -9.10942 0.0138525 -0.0038648 0.00381432 
395 2 -4.87353 3.48316 -7.19053 0.0219792 -0.0206542 -0.0542768 
380 1 -4.49776 4.94761 -6.20446 -0.0114611 -0.0123933 0.00390846 
392 2 -3.46288 5.02781 -6.43853 0.00914256 0.0212031 -0.0675393 
369 1 -10.9343 7.31129 -6.6966 0.00719089 0.00831579 0.00253753 
386 2 -11.0952 9.79948 -4.48846 0.0011462 -0.0568477 0.0095473 
366 1 -7.44899 5.81824 -6.65631 0.0172361 0.00292339 0.0158895 
370 1 -5.28478 5.66448 -5.07542 -0.00343935 -0.00855896 -0.0204139 
364 1 -6.7265 5.99368 -5.4512 0.0383624 -0.00279391 -0.00738988 
391 2 -3.91847 4.93936 -3.43532 0.00019037 -0.0019572 0.0253211 
367 1 -9.4497 8.01099 -4.13391 -0.017378 0.0150523 -0.00905702 
363 1 -9.63622 6.69578 -6.18908 0.0242214 -0.00344115 -0.0180018 
373 1 -8.86304 8.03248 -2.72994 -0.00546054 0.00500921 0.0139225 
361 1 -8.90557 6.86909 -4.96662 -0.00734758 -0.00133588 0.0132284 
362 1 -7.49782 6.60466 -4.48754 0.015027 0.0149799 -0.0212409 
376 1 -5.59796 6.24777 -2.88808 0.00278278 0.0117316 -0.00478876 
368 1 -6.90943 6.7377 -3.15611 0.0320969 -0.0160331 -0.00881682 
387 2 -7.24259 7.73663 -1.2851 -0.00344591 0.028211 -0.046094 
375 1 -7.76457 7.35354 -2.13437 0.0095498 -0.00804941 -0.00560744 
385 2 -9.85906 8.32418 -1.88076 0.00918114 -0.051371 -0.115052 
374 1 -10.724 8.6048 -4.6322 0.0252077 -0.0116554 -0.00206423 
379 1 -4.71642 5.61744 -3.74713 -0.0139262 -0.0315547 0.0016656 
388 2 -5.61859 6.2536 -1.8601 -0.00472254 -0.0312549 -0.0419021 
393 2 -11.3008 6.25273 -10.0708 0.0429834 -0.0399458 -0.0261983 
377 1 -11.5335 8.18432 -5.78428 0.00408993 0.00463865 -0.0129362 
378 1 -11.3815 6.55199 -7.86696 0.0204306 0.0457071 0.00723166 
64 2 -3.58146 18.1596 -8.51028 0.0173768 -0.0776437 -0.108321 
44 1 -2.37813 19.607 -7.45997 -0.0265058 0.00798327 0.0274743 
52 1 -2.75964 18.1121 -7.63016 0.010178 0.0179237 -0.020264 
55 1 -2.48136 17.0998 -6.91062 0.0121251 0.00305392 -0.0172407 
186 1 0.229837 16.2164 -10.5482 -0.00986973 0.0279915 0.00526674 
204 1 0.49558 16.767 -8.31227 -0.00402712 0.0298815 0.00765006 
192 1 0.484284 15.6627 -9.21674 -0.0133099 -0.00362937 -0.000984308 
183 1 -0.384797 18.127 -12.0939 -0.0388375 -0.00711515 -0.0376458 
185 1 -0.104567 17.5528 -10.7873 -0.0157314 0.0340887 -0.0110457 
57 1 1.90035 21.8451 -3.27742 0.00922228 0.0219944 0.00715907 
191 1 0.105975 18.6671 -9.66773 -0.0148718 -0.00157198 -0.0303541 
202 1 0.84918 18.1739 -8.6549 -0.000290226 0.00623129 -0.0256699 
203 1 0.646585 14.1253 -9.27361 -0.00372985 0.00739351 -0.00329745 
190 1 0.257215 14.1436 -11.8041 -0.00493206 -0.00789161 0.01547 
216 2 0.250858 16.1793 -7.54752 0.0218788 -0.0134191 -0.0629619 
214 2 1.31733 18.511 -7.69332 0.0135545 -0.0450941 -0.00137486 
200 1 1.17527 13.9589 -10.644 0.00299476 0.00443734 0.0116788 
215 2 0.754559 13.3402 -8.52047 -0.0766396 -0.046352 0.00308849 
63 2 -3.37083 20.2588 -9.43367 -0.0451035 0.075887 0.0022704 
51 1 -3.07366 20.3697 -8.42815 -0.0186189 0.0208455 0.00604454 
38 1 -1.38134 19.7928 -6.2506 0.00299298 0.0169612 0.0191014 
62 2 -0.48718 23.7663 -8.29456 0.0567768 0.060575 -0.133415 
49 1 -2.2477 21.6237 -8.433 -0.0189663 0.0170052 -0.0142272 
61 2 -2.31045 22.5281 -9.34785 0.0138684 0.0254142 -0.0145672 
43 1 -0.936164 21.8141 -7.64272 -0.0170119 0.00459861 0.00904944 
37 1 -0.383228 20.9473 -6.51287 0.00786827 0.0115256 0.00481449 
201 1 -0.0676946 20.0066 -10.0945 0.00764421 -0.0149429 -0.0167813 
50 1 -0.271477 23.0974 -7.38591 -0.0114851 0.0209044 0.0103421 
212 2 1.72025 13.011 -10.7426 -0.100429 0.027008 0.0628902 
198 1 -0.144347 20.3977 -11.4763 -0.0200418 -0.0183587 -0.00494235 
213 2 0.48632 20.5422 -9.19104 -0.0172762 0.0545869 -0.0216534 
210 2 -0.0584717 21.3695 -11.7499 -0.0066296 -0.0236225 -0.0386573 
53 1 1.04703 22.9527 -6.84799 -0.0185813 0.028344 -0.0138603 
65 2 1.20472 24.1235 -6.68753 0.0420233 -0.0663441 -0.0328957 
67 2 -2.80787 16.0576 -7.2033 0.0383992 0.0158402 -0.0167451 
68 2 -0.716846 15.1829 -5.08378 0.0390557 0.0365518 -0.0917759 
56 1 -1.04149 16.2237 -4.67569 0.0281209 0.0285011 4.97686e-05 
46 1 -1.40399 17.2298 -5.75336 0.0327473 0.0135856 -0.0221304 
59 1 -0.592079 16.5882 -3.19281 0.00809693 0.00495407 -0.00948692 
71 2 -0.399621 15.8811 -2.32394 0.0470576 0.137286 -0.011025 
72 2 -0.403087 18.3558 -0.962599 -0.00365352 0.0485107 -0.0695479 
40 1 -1.09188 18.5467 -5.33056 -0.00108437 0.0220533 0.0180067 
42 1 -0.153924 18.7693 -4.28139 0.0275698 -0.00921 -0.0149183 
48 1 0.0725039 17.9417 -3.03114 0.028052 -0.025717 0.0128474 
41 1 0.735335 20.0484 -4.33114 0.0322868 0.0271666 0.0121727 
39 1 0.348611 21.0376 -5.33239 0.00294938 -0.0150538 0.000578594 
60 1 0.194063 18.6756 -1.70815 0.0216432 -0.0253701 -0.0191671 
54 1 2.35414 22.4913 -4.53932 0.018983 -0.0151306 0.0188426 
45 1 1.2623 22.183 -5.56018 0.0142462 0.0214758 0.00982746 
47 1 1.32184 20.6504 -3.11728 -0.000229687 0.00138274 -0.0032514 
58 1 0.892683 19.9436 -1.72429 -0.00026629 0.00807861 -0.00384121 
70 2 0.464203 20.3236 -0.633702 0.0331926 -0.00523481 -0.00664913 
66 2 3.00216 23.2661 -4.66477 -0.0847717 0.0330738 0.0199261 
69 2 2.28155 22.1776 -2.31832 0.0181828 0.0391317 -0.0108357 
184 1 -0.366888 15.3694 -11.6672 -0.0252177 -0.0127935 0.0316496 
246 2 -6.7738 22.2733 20.1205 0.000427698 0.0521541 0.0580877 
237 1 -8.00911 22.3368 22.242 0.011496 0.0133245 0.00725302 
249 2 -7.19232 21.7218 22.8865 0.0529342 -0.00461283 -0.0561479 
234 1 -7.57662 22.847 20.8849 0.0168256 0.00786359 -0.00139181 
227 1 -8.55674 23.607 23.1264 0.0199375 -0.0214377 0.0206931 
238 1 -9.16212 23.3856 24.4267 0.0179737 0.0126762 0.00109446 
250 2 -9.43265 22.2998 24.6998 0.0556919 0.0334906 0.0134462 
245 2 -7.47521 23.4342 18.4782 0.012492 0.029467 -0.0724956 
233 1 -7.5278 24.3232 19.2489 -0.0191951 -0.0207129 0.00954668 
225 1 -7.91964 24.2368 20.5107 0.00518803 -0.0324516 0.0384599 
217 1 -8.10254 26.6636 20.9488 -8.38895e-05 0.00688326 0.0101886 
230 1 -6.91861 25.6111 18.9591 -0.00138199 -0.0146055 -0.0192942 
241 2 -4.95453 27.9309 19.4308 -0.0043055 0.0496567 -0.0765913 
229 1 -5.88485 27.7207 20.0441 0.0159297 0.00708953 0.0182323 
231 1 -5.71047 28.3626 21.2988 -0.0136333 -0.0341228 -0.010059 
223 1 -7.11524 26.8477 19.6616 0.00793644 0.0165341 0.014728 
224 1 -7.02253 28.5982 22.0019 -0.00185244 0.0115053 0.000900897 
219 1 -8.12678 25.3536 21.5378 0.00335992 -0.029738 0.00761968 
218 1 -8.05936 27.5463 22.0041 0.0259992 0.0167554 -0.00457912 
221 1 -8.37104 24.9631 22.9188 -0.0085412 -0.0062842 0.0071887 
220 1 -8.71723 27.1762 23.1872 0.00167291 -0.0332299 -0.00906746 
222 1 -9.14435 25.9736 23.7331 0.0114508 -0.014497 -0.000375864 
232 1 -7.5234 29.556 22.8763 0.00678885 0.00542019 -0.00632223 
228 1 -9.96302 25.6424 24.8585 -0.0217894 -0.0116774 -0.0138995 
242 2 -6.14385 25.7989 18.307 0.0752886 -0.102921 -0.109625 
243 2 -4.63782 28.473 21.597 0.0213287 0.0611112 -0.00942714 
244 2 -6.98259 30.5316 22.9035 -0.0438175 0.0256378 -0.00733955 
240 1 -9.60609 24.4249 25.2796 0.0262795 0.0162191 0.0064388 
252 2 -9.69807 24.1175 26.2336 -0.0358114 0.0869467 -0.0219704 
226 1 -9.07173 28.3395 24.0734 0.0107816 0.0212243 0.0118034 
235 1 -8.47918 29.6 23.9472 0.0113844 0.00368778 -0.00400723 
247 2 -8.19638 30.312 24.6107 -0.0553595 -0.00182965 0.00811143 
236 1 -10.0879 28.029 25.1083 0.00526357 0.0142511 0.0180663 
239 1 -10.8079 26.962 25.4431 0.0209873 0.0187737 0.0126527 
248 2 -10.7752 28.9332 25.346 -0.0279557 -0.0141418 -0.0147543 
251 2 -11.5296 26.9262 26.3581 0.00230845 0.00870259 0.0807793 
188 1 -1.59192 14.5863 34.5434 -0.0280994 0.00372456 -0.00240506 
207 2 -3.31269 14.139 33.1475 -0.0241574 -0.0318952 -0.0296503 
195 1 -2.66803 14.9633 33.6825 0.00291418 -0.013016 -0.0123843 
193 1 -2.43297 16.3088 33.2647 -0.0507021 0.00923982 -0.000253985 
205 2 -2.32848 16.6434 32.3715 0.0442003 0.026787 -0.0364187 
208 2 -0.798091 12.8337 33.3799 -0.0573992 0.0104613 -0.0155178 
199 1 0.0788063 12.8874 35.248 -0.00365213 0.0149474 -0.00750699 
196 1 -0.953706 13.1689 34.4082 -0.0182278 -0.0240277 0.00223185 
182 1 -1.27664 15.7099 35.496 0.00655293 0.0121987 0.0125705 
181 1 -1.15551 17.137 35.2237 -0.00750737 0.0190273 0.00572478 
187 1 -1.94102 17.3707 34.0524 -0.0179648 0.00604389 0.0157038 
194 1 -1.47802 18.7596 33.4173 -0.0461822 0.03821 -0.00206586 
206 2 -1.74034 18.8637 32.346 -0.0762746 0.0152874 0.00658653 
197 1 -0.698214 19.5835 34.031 -0.00858326 0.00138817 -0.00400179 
209 2 -0.493939 20.313 33.2384 0.01829 0.0341817 0.0496845 
189 1 -0.105162 19.3667 35.4876 0.00121472 0.00133906 -0.0104727 
211 2 0.848748 12.1177 35.2003 -0.0380283 -0.0337288 0.0367294 
308 1 16.6883 10.2705 11.1856 -0.0364306 -0.0295849 -0.00716005 
320 2 15.8806 9.76626 10.4799 0.0328993 -0.151741 0.0211909 
300 1 18.8076 11.0521 11.1525 -0.0203159 -0.0054252 -0.0154884 
80 1 23.2028 10.5386 10.8284 -0.0140552 0.000447419 -0.0217736 
99 2 21.4992 10.7604 9.14246 0.00882124 0.0628656 -0.0409895 
312 1 19.8159 11.916 10.6765 -0.0381808 0.00840558 0.00923477 
87 1 22.4328 11.1519 9.75957 0.00683282 0.0016934 -0.0246849 
74 1 24.3353 11.3745 11.2954 -0.00074213 -0.0059142 -0.00203702 
311 1 17.7414 10.7038 10.3705 -0.0410361 -0.00242925 -0.00924995 
323 2 17.5771 10.8309 9.33507 -0.0775473 -0.045537 0.0389969 
324 2 20.106 11.7063 9.67707 -0.0671054 0.0491073 0.0550544 
303 1 17.5629 8.42963 16.5014 0.00859991 -0.0260818 -0.0174741 
315 2 17.6606 8.3509 17.5811 0.0455064 -0.0259217 0.0162259 
304 1 16.0963 9.0241 14.4029 0.0171349 -0.0202992 0.0106651 
316 2 15.1187 8.72216 14.9595 -0.0087397 -0.0269442 -0.0158581 
296 1 17.3171 9.21873 15.2493 0.00165454 0.00269279 -0.0154819 
307 1 15.8993 9.15152 13.12 -0.00457204 -0.00703013 0.00300401 
298 1 16.6402 10.1368 12.52 -0.0205954 -0.0183412 -0.00350167 
319 2 14.9363 8.64211 12.6093 0.0247167 -0.00689444 0.0277004 
301 1 19.048 8.0527 16.4213 0.0241092 0.0109909 0.00639825 
295 1 20.0726 9.09681 16.118 0.00144522 0.0109374 -0.024972 
297 1 21.6448 11.0163 15.4728 0.0291925 0.0264996 0.00699599 
292 1 17.7688 10.4645 13.4359 -0.00779016 0.000701745 -0.0200778 
290 1 18.2087 10.0934 14.705 -0.0152418 -0.010745 -0.0411727 
289 1 19.5344 10.1425 15.428 -0.0131706 0.0164423 -0.0276785 
291 1 20.3627 11.0381 14.6995 0.000935157 8.33262e-05 -0.00665379 
306 1 22.4026 11.8425 14.6034 -0.0214694 0.0298149 -0.00726438 
294 1 18.7549 10.7953 12.5127 0.00485105 -0.00609417 0.00976563 
293 1 20.2112 10.8841 13.2392 0.00865893 0.00701749 -0.011847 
317 2 23.517 10.293 16.3787 0.0339767 0.00660672 -0.00851762 
302 1 21.6019 8.91474 16.6944 0.0294579 0.000383726 0.0242127 
305 1 22.3771 9.89195 16.0772 0.0128076 -0.00676351 -0.016416 
314 2 22.0939 8.37385 17.3671 -0.0877468 0.031858 -0.0058368 
318 2 23.6566 11.9992 14.8772 -0.112173 0.0558011 0.0306366 
107 2 27.5667 10.2656 15.4147 0.0592273 0.001845 -0.00367125 
95 1 26.6271 10.5406 14.8122 -0.00109974 -0.00704359 0.00395772 
76 1 25.1934 11.1353 12.6295 -0.00216293 0.00301135 -0.00517463 
82 1 24.6303 10.1919 13.5315 -0.0454659 0.00836278 -0.0213731 
313 2 19.4137 7.48204 17.2229 -0.011957 -0.0366408 0.055261 
84 1 26.7661 11.8858 14.2606 -0.00471585 -0.00599532 0.00825019 
92 1 25.4738 9.82649 14.5111 -0.0566742 0.0161868 -0.0442922 
91 1 23.2831 9.69563 13.0489 0.00504757 -0.0342759 -0.00701536 
88 1 22.571 9.73585 11.8265 0.014955 -0.00934176 -0.0451356 
100 2 21.644 9.30257 12.0066 -0.0669592 -0.0052339 -0.0218941 
104 2 25.1576 9.14004 15.4099 0.0288856 0.114234 -0.0170996 
103 2 22.5286 9.15685 13.7145 0.0116072 -0.0327416 -0.0513311 
299 1 20.9422 11.8881 12.5292 -0.0314087 0.000320034 -0.0297346 
78 1 26.032 12.008 13.0267 0.00584579 0.0158854 0.019151 
89 1 25.6355 14.7823 8.84869 0.0371314 0.0342036 -0.0132696 
101 2 25.459 15.489 8.01261 0.0565072 0.0314751 -0.0972829 
442 1 31.8518 18.5744 7.93319 0.00388095 -0.0173926 -0.0124033 
310 1 20.3893 12.9313 11.5534 -0.0166443 0.0350537 0.000225889 
434 1 32.4241 19.7616 9.94308 0.00944351 -0.0101967 -0.00424099 
90 1 27.2274 15.7184 10.2361 0.0256458 -0.00856123 0.00414338 
102 2 27.4718 16.673 9.72526 0.0266557 0.0113381 -0.0647716 
79 1 23.618 13.1961 9.60619 -0.00266811 0.0140372 0.00791026 
454 1 31.2593 14.956 11.5914 -0.00578497 -0.00519854 0.00970529 
468 2 31.9044 14.1196 9.6635 0.0498903 -0.0630891 -0.0806946 
456 1 31.2982 14.8808 10.1384 0.0322969 -0.00628926 0.0312434 
467 2 31.4321 15.1087 7.79545 0.0121479 -0.00421087 -0.00658871 
455 1 31.4298 16.2269 8.13046 0.00676552 -0.0334407 0.000318459 
75 1 25.7411 13.4322 10.8894 -0.00326365 -0.00948111 -0.0113688 
81 1 26.291 14.5493 9.95667 0.00850536 0.00330376 -0.00553707 
93 1 27.4744 15.532 11.5994 0.0050347 0.0055712 0.00925011 
86 1 24.4828 13.9048 8.62116 0.0178946 0.0111658 0.00457507 
73 1 24.5054 12.7268 10.6988 -0.0379354 -0.00151966 -0.00772 
437 1 31.2389 17.5307 11.6888 0.00567357 -0.0038186 -0.00985627 
438 1 31.5692 17.4039 10.3126 0.00193268 -0.00821389 1.59177e-05 
444 1 31.3169 16.2183 9.60738 0.0121799 -0.000362727 -0.0316425 
464 2 31.861 17.3791 6.26193 -0.0639258 -0.0393852 -0.0628193 
451 1 32.6094 19.5901 6.94112 0.0049159 0.00158955 0.00534156 
457 2 34.7961 21.87 11.6975 0.00686423 -0.0592388 -0.0408579 
452 1 31.4867 17.3464 7.35158 0.0168186 -0.0225846 0.0157574 
448 1 33.3313 20.5262 7.67863 0.0465108 0.00366408 -0.00403895 
445 1 34.2464 21.1342 11.2009 -0.026992 0.00546739 0.0102062 
440 1 33.2895 20.5959 9.16812 -0.0294137 -0.00792571 0.0252443 
433 1 32.8538 19.5509 11.2711 -0.00935905 -0.00360764 0.000259135 
460 2 34.1386 20.8138 6.91264 0.0857197 0.0239276 0.0023365 
463 2 32.6583 19.4101 5.75018 -0.00615415 -0.00280289 -0.0400016 
105 2 28.5232 15.9679 11.8509 0.0170447 -0.0192322 0.043281 
447 1 34.5348 20.821 9.9368 0.0118015 0.0283457 -0.00644009 
436 1 31.759 18.5756 9.47756 0.015546 0.0153603 5.24248e-05 
459 2 35.3335 21.2054 9.3589 0.00595616 0.092985 0.0200807 
322 2 21.3786 13.6741 11.5327 0.0609284 0.0636981 -0.0731554 
98 2 23.7706 14.0291 7.91597 0.0865795 0.116281 -0.031636 
97 2 21.8387 12.8206 8.43652 -0.0513931 0.0510956 -0.0146451 
85 1 22.6309 12.3053 8.95276 0.0051046 0.0392265 -0.00483789 
309 1 22.1661 12.1906 13.2211 -0.00571363 -0.00526146 0.0164106 
435 1 32.2959 18.247 12.0818 0.0104701 0.00659759 0.00110768 
449 1 33.1653 19.4903 14.3511 -0.0125384 0.0128111 -0.0026524 
321 2 22.5473 13.2392 12.7173 0.0393919 0.0891586 -0.0374376 
439 1 33.5406 20.503 12.1155 -0.0042177 0.0076392 -0.0110214 
83 1 27.2337 14.3994 12.6269 0.00737929 0.00153432 -0.00324232 
94 1 27.9035 13.7585 13.84 0.0414219 -0.00471355 0.0074967 
108 2 28.543 12.8459 15.4224 0.0402249 0.0222228 -0.00377007 
96 1 27.8591 12.5947 14.7721 -0.000130979 6.97782e-05 -0.00578242 
106 2 29.0559 13.5082 13.6333 -0.0082722 -0.0627738 0.0215182 
458 2 33.81 21.6313 13.9217 -0.00425866 0.0423487 -0.0190758 
441 1 32.4926 18.528 13.5652 -0.000664502 0.0387244 0.0228855 
450 1 31.6674 17.6377 14.3684 0.0245787 -0.00742609 0.00224048 
462 2 31.6267 17.7645 15.3137 0.0459065 0.0021559 0.0678961 
465 2 31.5382 15.5235 14.6114 0.0218606 0.014294 0.0363466 
453 1 31.4446 16.398 13.9119 0.00495737 0.00799524 0.0126703 
446 1 33.3888 20.5681 13.5181 0.0014058 -0.00318086 0.0099047 
461 2 32.8304 19.6632 15.4192 0.0466113 -0.0388451 0.0725613 
77 1 26.3199 13.2585 12.2598 -0.0304355 0.0139936 -0.0221729 
443 1 31.0946 16.1644 12.4369 -0.00136663 -0.0186277 0.021918 
466 2 31.9035 14.3418 12.3384 0.0518709 0.0291388 0.00439153 
142 2 52.8341 -0.286276 -3.83065 0.00131488 0.052398 0.0303126 
141 2 55.7026 -0.199987 -3.09685 0.0145437 0.114656 -0.0239972 
129 1 55.4169 0.150379 -2.02948 -0.00419013 0.031549 0.0109748 
126 1 56.7098 0.215995 -1.52475 -0.0129081 0.0215219 -0.00401055 
138 2 57.4801 -0.51437 -1.6863 0.0477456 -0.0393646 0.0862318 
130 1 52.9411 0.485808 -3.02056 -0.00781874 0.002894 -0.00745415 
143 2 50.1376 3.33881 -2.31602 0.0132052 0.0527074 0.0494185 
144 2 51.4486 1.44517 -4.17755 -0.0826168 0.0298111 -0.0207188 
131 1 51.1538 3.31001 -1.82533 0.0084227 -0.0100945 0.0320922 
132 1 52.3061 1.66595 -3.33825 -0.00777686 -0.0121746 -0.00764949 
140 2 50.1591 4.73844 -1.37418 -0.00851181 -0.00429897 0.00614819 
128 1 50.8417 4.1094 -0.694376 -0.00341383 -0.0085351 -0.00815142 
120 1 52.3354 2.60926 -2.22503 -0.0283466 0.00100878 0.0144722 
118 1 51.9938 4.4332 0.0958951 -0.0361895 -0.0217671 -0.00147207 
112 1 53.204 3.39653 0.185139 -0.0374501 -0.00733345 -0.0196791 
114 1 52.9689 2.27525 -0.828125 -0.00447887 0.0128306 0.016159 
119 1 54.042 0.640666 -1.94199 0.00941526 -0.0136709 -0.011958 
113 1 54.1176 1.43098 -0.785696 0.00516247 -0.0197774 -0.00483167 
110 1 54.3884 3.50912 0.913286 -0.000301799 0.0122121 0.0301155 
111 1 55.5612 1.68972 -0.033422 -0.00534339 0.00449509 0.0259621 
109 1 55.6397 2.74491 0.670131 -0.0246749 0.0163773 0.0168571 
117 1 56.8354 0.999334 -0.348521 -0.00199276 -0.0268379 0.0133943 
125 1 58.0793 1.38511 0.176672 -0.00146297 -0.0236945 -0.0116042 
122 1 58.2835 2.3708 1.09422 -0.0103971 0.000332153 0.0331022 
137 2 58.8758 0.699322 -0.358287 0.0121543 0.0571437 -0.03094 
534 2 38.4428 -7.69569 6.61818 -0.00764778 -0.0973344 -0.0285142 
521 1 37.7572 -6.4776 9.61383 -0.0234554 -0.0171582 0.0152611 
5 1 45.9554 -11.939 5.26839 0.00184059 -0.000643074 0.00607617 
533 2 36.6442 -6.34553 9.5547 -0.0153139 0.00552029 0.0133063 
9 1 47.9007 -10.812 6.02923 0.0263692 -0.0117697 0.00286329 
134 2 59.1376 2.74268 1.62498 0.00461428 0.0479804 -0.0477505 
14 1 50.1862 -11.6623 4.94273 -0.0244619 -0.00673325 0.0238442 
17 1 49.3986 -10.6553 5.81079 0.0298863 0.0242646 -0.00292323 
139 2 52.0518 6.385 1.10146 -0.068154 -0.0481118 -0.0619348 
127 1 52.3725 5.32239 1.24073 0.0121097 -0.00124953 0.00927653 
124 1 53.4845 5.65935 2.03749 -0.00032403 0.00650676 0.00908682 
116 1 54.4164 4.67608 1.8906 -0.00603971 0.00942935 0.0305809 
115 1 57.0633 3.04771 1.09886 -0.00966052 -0.00592158 -0.00673114 
123 1 55.7745 4.74422 2.53732 -0.000734758 -0.0138929 0.0159114 
121 1 56.8891 4.61401 1.56823 0.00647299 0.0040651 0.0136255 
133 2 56.807 4.96536 0.506809 0.00830198 -0.010015 0.0105268 
136 2 53.6496 6.53948 2.5738 -0.0132424 0.0478921 0.0127319 
135 2 56.0966 3.69607 3.18041 -0.0563885 0.00366739 0.0698059 
506 1 41.0318 -7.96771 11.6142 0.0174308 -0.0201736 0.00577846 
505 1 40.0452 -7.40428 10.8214 0.00391948 -0.0121006 0.0137783 
522 1 38.7063 -8.1335 7.55734 0.012253 -0.0204574 0.00723025 
525 1 39.3848 -9.4196 7.40823 0.000334941 0.0150419 0.00674615 
537 2 38.9994 -10.3156 6.59459 -0.0164091 0.0231583 -0.0397046 
518 1 38.0644 -5.98302 10.9175 -0.00440533 -0.00562977 0.011833 
515 1 40.5026 -9.82895 8.34751 0.0192592 0.0283446 0.0118319 
526 1 40.7882 -11.2001 8.17827 -0.0172672 -0.0128959 -0.0111428 
538 2 40.2709 -11.6787 7.36795 -0.0320867 0.050768 -0.0924719 
528 1 41.8079 -11.7698 8.99023 -8.96865e-05 -0.00152473 -0.024896 
509 1 40.6325 -8.86244 9.24318 -0.00242534 -0.0311124 0.0156613 
510 1 41.559 -9.58081 10.2243 0.00212808 0.0119444 -0.0108283 
516 1 42.2011 -10.9536 10.0656 0.018735 -0.0150744 0.00461839 
513 1 38.4998 -7.63008 8.99457 -0.0394932 -6.06573e-05 0.0184165 
507 1 39.6398 -8.09527 9.76019 -0.0152906 -0.028335 0.0142856 
511 1 39.3241 -6.15668 11.4765 -0.0113073 -0.0258298 0.0301688 
508 1 42.0245 -8.91344 11.3004 -0.0192328 0.00800591 -0.0176554 
527 1 43.1254 -11.4853 11.091 0.0250277 -0.0226599 -0.00199887 
34 2 44.0504 -10.7796 7.83836 -0.0140986 -0.0246847 -0.018164 
11 1 45.4564 -11.2554 6.49238 0.007118 -0.00957867 0.0173085 
22 1 44.0827 -11.6368 7.13112 0.0207785 0.0130782 0.00538407 
21 1 45.9463 -10.0355 7.10558 -0.0161157 -0.015213 0.0103755 
33 2 45.3345 -9.0594 7.49953 -0.0278412 0.0431973 0.000344004 
18 1 47.3132 -9.85131 6.78145 0.0172306 -0.0244884 0.00883866 
30 2 48.0596 -9.32105 7.4224 -0.00065826 -0.00535286 0.00949338 
29 2 49.7352 -9.62635 5.88381 0.00791109 -0.0337366 -0.0521968 
530 2 37.2735 -5.96323 11.7165 -0.0131819 -0.0853853 -0.0861184 
7 1 49.1768 -11.7487 3.74761 0.0102313 0.0163996 -0.0115003 
360 2 59.6849 -7.23617 11.5889 0.0227882 0.0962332 -0.0075992 
536 2 44.6086 -11.5532 12.1508 -0.0370113 -0.0174409 -0.0366171 
535 2 44.6959 -8.20724 13.522 0.00444731 -0.0123144 0.0433253 
512 1 41.4263 -7.31777 12.877 -0.0145062 -0.0281616 0.00748604 
523 1 43.7862 -8.25026 12.8788 -0.0200206 -0.0208432 0.0275806 
517 1 39.6079 -5.4752 12.7429 0.00105495 0.002733 0.00667056 
470 1 59.6097 -9.67919 22.82 -0.00475974 0.00506163 0.00388013 
355 2 59.4246 -2.99005 16.3484 -0.0529718 0.00788245 0.0295893 
348 1 59.9504 -7.55344 12.5499 0.010184 -0.0144499 -0.0227794 
514 1 43.3405 -9.31731 12.1112 0.0166385 -0.0201659 0.00134849 
493 2 56.7808 -7.7638 21.4453 0.021083 -0.0509568 -0.0309121 
469 1 58.7572 -10.2235 21.9082 0.00107736 -0.0108795 0.00357633 
483 1 57.66 -7.99139 23.2037 0.00189004 0.00508083 0.0160467 
531 2 40.849 -5.75857 14.5302 0.0376886 -0.0228133 0.0689902 
519 1 40.4519 -6.36964 13.4246 -0.0113848 -0.00391481 0.00216746 
529 2 39.2627 -4.3387 13.2346 0.0639443 -0.0723913 -0.0319563 
532 2 42.8752 -6.75091 14.2969 0.0147087 0.00688474 0.00305342 
520 1 42.7083 -7.43015 13.4905 -0.0011871 -0.00975371 -0.0106585 
344 1 59.2928 -4.70716 14.6669 -0.00982876 0.0162313 -0.0174053 
497 2 58.4454 -10.7244 17.8267 -0.180642 0.0435645 0.0519632 
347 1 59.9031 -5.2333 13.4412 0.00412601 -0.00301751 -0.00400511 
356 2 59.0641 -3.495 14.8183 0.0306478 -0.0770445 -0.0235363 
476 1 59.0105 -8.53919 23.61 0.00100993 -0.0279293 0.00492151 
471 1 59.0959 -11.5196 21.3385 -0.0111246 -0.00623057 -0.00443355 
495 2 56.8948 -7.67735 23.9105 0.110236 0.0503357 -0.158645 
477 1 58.6761 -11.715 20.0183 0.00349269 -0.0115411 0.00367777 
494 2 57.4679 -8.87656 19.2561 -0.0204824 -0.0707683 -0.00945673 
482 1 58.2298 -9.49906 19.7574 0.0113455 0.0112813 0.00123924 
481 1 57.7167 -8.13595 21.8886 0.0089756 -0.016205 -0.00641396 
475 1 58.3282 -9.20593 21.21 0.00424027 -0.0207999 0.0245634 
485 1 58.6844 -10.5364 19.0186 -0.0180566 -0.0322081 -0.00432721 
334 1 59.8977 -4.88632 15.9967 -0.00230364 0.0232868 -0.0131502 
496 2 59.5144 -7.04232 24.8774 0.067304 0.00128534 -0.0406303 
524 1 43.7361 -10.7959 12.0901 0.02074 -0.0137389 0.0136427 
264 1 37.883 17.0739 -11.9004 -0.0255185 0.0265511 -0.00687328 
285 2 38.9987 12.1903 -11.1476 -0.0374086 0.0594769 0.00854314 
273 1 39.7501 13.0814 -11.3031 -0.0136666 0.000289983 -0.00132449 
263 1 38.996 14.3784 -11.2049 -0.0090918 0.000827414 -0.00918205 
255 1 41.1516 15.5163 -11.5035 0.0222856 0.0184112 -0.0104278 
274 1 37.5534 14.6077 -10.8349 -0.0161815 -0.0212928 -0.01113 
256 1 39.9951 18.2169 -11.8889 -0.0106418 -0.0179175 -0.0126894 
258 1 39.1719 16.9971 -11.8586 -0.0113166 0.0132531 0.00938008 
13 1 49.4161 35.8279 2.29889 0.0142662 0.0133904 -0.00896089 
257 1 39.751 15.6538 -11.3638 0.0111396 -0.00327125 -0.0130305 
539 2 43.3432 35.6221 10.5717 0.0136621 0.0736204 0.0642663 
269 1 43.4033 14.3238 -11.6086 0.00193706 -0.00519738 -0.006177 
261 1 41.8507 14.3262 -11.4029 -0.0112369 -0.00361493 0.0106299 
266 1 44.2646 15.3021 -11.7184 -0.0199056 0.0129603 -0.0164104 
286 2 36.9582 14.0489 -10.0823 -0.0406155 -0.0015852 0.0187148 
254 1 41.5092 18.0711 -11.7546 -0.00945818 0.000756809 0.00926208 
540 2 41.7757 35.1699 8.21127 0.0816016 0.0841483 -0.0273105 
36 2 43.135 34.4836 6.97656 0.00658611 -0.00611321 0.0144852 
281 2 43.9503 13.3937 -11.5331 -0.00811479 -0.0291851 0.0181838 
278 2 45.2999 15.4898 -11.913 0.0728304 0.036948 -0.00539026 
24 1 43.3309 35.3275 6.54838 0.0129636 -0.0041937 -0.00893257 
276 1 37.2501 15.882 -11.3291 -0.0104771 -0.00501074 0.0270313 
253 1 42.1089 16.7536 -11.8132 0.0182102 -0.00535106 -0.0202607 
27 2 49.3077 35.1675 0.587256 -0.0149178 0.038604 -0.00134087 
15 1 48.5361 35.4569 1.38803 0.0061697 0.0154353 -0.0434248 
12 1 43.4826 35.1413 4.95546 -0.0306355 -0.0222994 0.00175097 
25 2 50.4682 35.5432 2.41964 0.00480682 0.0459011 0.00574601 
31 2 44.5868 33.4805 0.250171 -0.16477 -0.0889014 0.0737906 
35 2 41.5795 34.3131 3.693 0.0107764 0.016843 0.00951445 
6 1 44.9275 35.2947 4.57807 0.0160151 0.0093769 -0.0263798 
1 1 47.8397 35.6977 4.04663 -0.0122822 0.0080795 0.0155081 
23 1 42.7133 34.8122 3.86661 0.00435186 -0.00755281 -0.000961373 
32 2 42.672 33.5769 1.91436 0.0508148 0.00225039 -0.0551624 
20 1 43.2324 33.9407 2.70907 0.00538045 -0.0319417 0.014723 
19 1 45.0086 34.1319 0.87872 0.00337312 0.0217264 -0.0119236 
10 1 44.4351 34.653 2.13763 0.00865121 0.0072162 -0.0223872 
16 1 46.2199 34.5271 0.550807 -0.00952433 -0.0163913 0.00271899 
2 1 46.6666 35.489 3.02273 0.0149553 -0.00959135 0.0247288 
28 2 46.4031 33.7143 -0.271214 -0.0403418 -0.0104757 -0.0168184 
8 1 47.0007 35.3864 1.67987 -0.00561747 -0.00551407 -0.0157207 
4 1 45.2475 35.465 3.15241 -0.0288686 0.00436689 0.00581536 
3 1 47.4694 35.9122 5.30392 0.0445372 -0.00173063 -0.0121608 
26 2 50.46 35.3333 5.06609 -0.0267091 0.00170001 -0.0257709 
288 2 36.3641 16.2776 -11.0102 -0.0346981 0.0696537 0.0826884 
270 1 40.8647 13.2093 -11.9505 0.00217287 0.00975803 0.0127096 
272 1 37.7441 19.5325 35.8287 0.00126707 0.00425407 -0.00660736 
280 2 41.8296 21.5387 35.6902 0.0452448 0.0109437 -0.0109598 
275 1 37.1891 18.3528 35.7089 0.0150257 -0.0121833 0.0224762 
271 1 40.277 20.5293 35.6534 -0.0131518 -0.0143231 -0.0147003 
284 2 37.0899 20.2625 35.907 -0.0659367 -0.0283462 -0.0294357 
486 1 58.9104 34.938 19.2932 -0.0248402 0.00397724 0.0124926 
268 1 41.6777 20.543 35.4524 -0.00257812 -0.016219 -0.0247044 
267 1 43.4481 19.1111 34.9317 -0.0350795 0.00812733 -0.0198459 
260 1 42.1912 19.0992 35.5407 0.022588 -0.00399976 0.0173297 
262 1 39.2764 19.4499 35.6663 -0.0121314 0.0104743 0.0146194 
498 2 58.3334 34.5734 18.5125 -0.03849 0.0356497 0.000120467 
279 2 44.1256 19.5155 33.9588 -0.0621258 0.0198166 -0.000570598 
277 2 45.0043 17.8091 34.8134 -0.0414159 0.0406294 0.0120693 
265 1 44.0813 17.8017 35.2628 -0.00452359 -0.000908115 -0.00218154 
282 2 41.5727 12.6108 35.6041 0.0916596 0.0079355 -0.0179296 
287 2 36.056 18.2082 35.7412 0.00486799 -0.0312191 0.014046 
489 1 59.9451 34.287 19.7845 0.0219198 0.0175631 0.0251251 
283 2 40.012 21.471 35.672 -0.0981933 -0.064708 -0.0445451 
259 1 43.4982 16.6347 35.863 -0.00132568 -0.0211461 -0.0153569 
574 2 75.3411 -9.5869 8.71553 -0.0130478 -0.00827686 0.00821713 
562 1 74.4502 -10.2325 8.97537 0.000507001 0.00923977 -0.0160804 
390 2 83.8509 7.35644 -8.09337 0.0330118 0.0103876 0.00674147 
576 2 73.5335 -10.9632 7.04063 0.0343357 -0.10184 0.0801667 
389 2 83.6146 8.74341 -6.06638 -0.0398816 0.0432899 0.00402166 
551 1 74.5431 -10.3249 10.4052 0.00211937 -0.0136245 0.0113245 
545 1 73.8888 -11.2302 10.9765 -0.00766183 0.0148284 0.0186091 
573 2 74.7191 -7.925 10.9858 -0.00417909 0.0568408 -0.0466764 
561 1 74.6911 -8.99867 11.2027 0.00574864 -0.00564322 -0.0109938 
564 1 73.6804 -11.0399 8.25429 -0.00205458 -0.0299835 -0.0239126 
552 1 72.7161 -11.8693 8.88284 -0.007274 0.0276208 0.0155867 
358 2 62.2885 -8.25146 12.0747 0.0290167 -0.0414938 0.125976 
341 1 63.6815 -9.63625 17.879 -0.0146123 -0.0190534 0.019481 
353 2 64.4683 -10.4394 18.03 0.0373934 -0.008604 0.00148238 
325 1 61.9944 -7.355 17.7175 0.000359207 -0.0148523 -0.00629568 
333 1 62.7151 -9.8455 16.7438 -0.0137771 0.00183545 0.023565 
342 1 62.8433 -10.4976 15.5395 -0.0123756 -0.0113805 0.0163734 
354 2 63.3845 -11.6447 15.5592 0.0684485 -0.00750199 0.0665793 
327 1 61.8762 -8.44189 16.7109 -0.00646616 -0.0058699 0.0112307 
326 1 61.4234 -6.21753 17.2652 -0.0232897 0.0191499 0.0183997 
345 1 62.1741 -9.941 14.4834 -0.0107806 0.00474288 -0.0208223 
329 1 61.3465 -8.22918 15.4193 -0.00984812 -0.0232867 -0.00742373 
335 1 61.5079 -8.89717 14.291 0.00829785 -0.00189854 0.00390216 
330 1 60.5224 -7.06054 15.1033 -0.00639671 0.0064234 -0.0355904 
357 2 61.9806 -10.3757 13.4187 0.0201518 0.047782 0.0237315 
359 2 60.0149 -4.56048 12.4223 -0.0167387 -0.023066 -0.0610937 
554 1 73.2319 -11.9555 15.1743 -0.0119575 -0.026461 0.0100193 
557 1 73.6612 -10.8425 14.7409 0.0144419 -0.00851485 0.0407905 
569 2 73.9618 -10.0431 15.5704 0.0474723 0.000302426 -0.0359216 
543 1 73.3204 -11.328 12.3232 0.0347603 -0.0115668 0.00210214 
549 1 73.9212 -10.6615 13.2751 0.0110875 0.00775881 -0.00976463 
558 1 74.8434 -9.50552 12.4602 0.00578439 -0.00674284 -0.0260795 
570 2 75.1553 -8.90306 13.3435 -0.0429625 0.0121243 0.0915914 
328 1 60.5321 -6.03437 16.1477 -0.00709567 0.00275975 0.016276 
336 1 60.2458 -6.68541 13.8226 0.0102602 -0.000712031 -0.00256659 
343 1 60.2698 -3.66114 16.8586 -0.0190083 -0.0185579 -0.00924082 
149 1 71.1021 -0.333911 31.9706 0.0311065 0.0117922 0.0321561 
331 1 62.8062 -7.30968 18.8878 0.00822456 0.0274146 0.00611374 
338 1 63.6128 -8.78096 19.1814 0.00252377 0.00793014 0.00398058 
491 1 63.6326 -11.2215 23.0896 0.012493 0.0148341 0.0035149 
503 2 64.7932 -10.9274 22.9134 0.041772 -0.0438548 0.0690256 
168 1 71.9317 2.59232 31.2108 -0.0177776 -0.00197644 0.0293672 
350 2 63.413 -9.19596 20.1358 0.0376569 -0.102631 0.0995796 
337 1 62.7711 -6.10082 19.5619 0.0106125 0.0230869 0.0113476 
346 1 61.1334 -8.35499 12.82 0.00150675 -0.00536672 -0.0187161 
178 2 72.7755 2.71227 33.2098 0.111674 -0.0714258 -0.0893364 
474 1 61.0544 -11.6091 22.7001 0.0135321 -0.026728 -0.0172285 
478 1 61.8051 -9.44282 23.5028 -0.0182328 -0.00999786 0.0190511 