ITEM: TIMESTEP
190000
ITEM: NUMBER OF ATOMS
576
ITEM: BOX BOUNDS pp pp pp
-1.2000000000000000e+01 8.4000000000000000e+01
-1.2000000000000000e+01 3.6000000000000000e+01
-1.2000000000000000e+01 3.6000000000000000e+01
ITEM: ATOMS id type x y z vx vy vz 
53 1 5.46305 -11.6968 -10.2424 -0.0069375 -0.0348113 0.0102448 
50 1 5.03122 -10.293 -10.8279 0.0157768 -0.0242683 -0.000784281 
115 1 -7.72023 11.1841 -4.52573 0.00693919 0.0300846 -0.00781572 
62 2 4.12554 -10.6353 -11.3912 -0.0197248 0.00799036 0.00948475 
49 1 5.23707 -7.94971 -11.7021 -0.000948722 -0.00040187 -0.0266126 
56 1 11.5661 -7.99387 -11.4519 0.000537732 0.000938251 0.0223495 
43 1 5.84061 -9.11181 -11.1359 -0.00714644 -0.00455891 -0.0016675 
48 1 11.5418 -9.69325 -9.78527 -0.0105211 -0.0265126 -0.0220089 
141 2 -11.6129 11.5918 -8.85829 -0.0391718 -0.0639299 -0.0566621 
58 1 11.0411 -11.305 -7.92027 0.02043 -0.0127525 0.00619068 
47 1 9.70589 -11.3774 -8.45835 0.00886452 0.0174156 0.00393612 
42 1 10.0731 -9.29478 -9.71175 -0.0216498 0.00154582 0.0131113 
41 1 9.01217 -10.4746 -9.42349 -0.0258956 -0.00917134 0.0235258 
40 1 9.51829 -8.18278 -10.2364 0.000321664 0.0118102 -0.018311 
39 1 7.68232 -10.4452 -9.81089 0.0131898 0.0246532 -0.0192947 
45 1 6.90391 -11.7157 -9.56414 0.00431069 0.012343 -0.00311787 
37 1 7.24129 -9.12281 -10.5199 -0.00796384 -0.0212033 -0.0173481 
46 1 10.2973 -7.38281 -11.1241 0.0112422 -0.00976555 0.0210818 
38 1 7.9884 -8.05587 -10.87 0.0047169 -0.0300626 -0.00438873 
463 2 -4.76657 2.58631 6.42986 -0.0527631 0.0523474 0.0865112 
44 1 7.45697 -6.83983 -11.5842 -0.0308138 -0.00987896 -0.0104664 
464 2 -2.34939 3.60955 5.6904 -0.00291073 -0.0280807 -0.03956 
52 1 8.4826 -5.73055 -11.979 -0.0134361 0.0137959 -0.0413196 
55 1 9.7152 -6.08138 -11.6392 -0.00583666 0.00994465 -0.00251454 
133 2 -7.50023 10.5983 -2.62213 0.0660307 0.00512302 0.0458723 
129 1 -10.7124 11.4834 -8.23471 -0.00413777 -0.00620784 0.00928852 
140 2 -5.49897 6.29404 -8.96057 -0.0567262 0.0031996 0.0532733 
111 1 -8.36987 11.0362 -6.54419 0.00108242 -0.0152877 0.0144852 
132 1 -9.76529 8.44627 -9.44023 0.0185833 -0.00773095 0.00412261 
143 2 -7.45452 6.53517 -10.5028 0.0208182 0.0243221 -0.0376144 
114 1 -8.26704 9.06114 -7.81767 0.0161152 -0.00335762 -0.00952545 
128 1 -6.29456 6.90607 -8.67903 -0.0064686 -0.00869479 -0.00252268 
131 1 -7.47312 7.17665 -9.49685 -0.0212595 -0.00436238 0.0196111 
120 1 -8.48658 7.94974 -8.80651 0.00468906 0.0263567 0.0155941 
112 1 -7.1172 8.51454 -6.92145 -0.0207739 -0.00882613 -0.00215533 
118 1 -6.49782 7.22997 -7.2615 0.012883 2.49938e-05 -0.00628317 
113 1 -8.53634 10.283 -7.69476 0.00920643 -0.0209184 0.0236865 
110 1 -6.74439 9.45959 -6.08898 0.00450727 0.00782001 0.0298813 
119 1 -9.79889 10.4323 -8.54083 0.0189318 -0.0276729 0.0240038 
130 1 -10.4336 9.61511 -9.46643 -0.019601 -0.021229 -0.00546315 
144 2 -9.6698 7.99458 -10.3964 0.0786206 -0.015449 -0.0461306 
109 1 -7.15461 10.7648 -5.81271 -0.0177854 -0.00815368 0.0111848 
142 2 -11.2858 9.48954 -10.2551 -0.0642954 0.0793466 -0.0105786 
139 2 -4.58588 5.97407 -6.17516 -0.0482737 -0.0461306 -0.0644025 
127 1 -5.58868 6.80956 -6.29399 -0.0125539 -0.0166883 0.0148985 
124 1 -5.08035 7.68436 -5.31589 0.00492428 0.00321224 -0.0206586 
446 1 -6.76705 2.41157 -0.893654 0.0176672 -0.0143585 -0.00585765 
458 2 -7.48354 1.79343 -1.40555 0.0680155 0.0619416 0.0237954 
441 1 -5.28994 4.45308 -0.946799 0.0121607 -0.0104939 -0.00634474 
461 2 -6.92825 3.58319 -2.4995 -0.0730511 -0.103207 -0.0985003 
449 1 -6.28956 3.59729 -1.58138 0.0326885 0.0255206 -0.0151474 
462 2 -4.40374 5.28703 -2.6119 -0.0790695 0.0384815 -0.0379346 
121 1 -6.97323 10.3563 -3.49405 -0.0115074 -0.0068856 0.041542 
116 1 -5.88491 8.85561 -5.09761 -0.00428619 -0.0314998 -0.0201035 
450 1 -4.63878 5.7025 -1.56511 0.00209932 -0.0209805 -0.0378882 
123 1 -5.71935 10.0002 -4.19859 -0.0144663 -0.00553453 0.0131949 
136 2 -4.06668 7.76051 -5.11044 -0.075653 0.0497013 0.0802937 
453 1 -3.74053 6.52088 -0.838519 -0.00900258 -0.00206528 -0.0099639 
465 2 -3.74752 7.65218 -1.57571 -0.00586911 -0.035711 0.0628455 
135 2 -4.87801 10.3638 -3.92065 0.0797008 -0.0779533 0.00849605 
105 2 7.65897 2.05436 -10.7719 0.042749 -0.0465254 -0.0726363 
179 2 -1.15617 -5.00481 2.2286 0.00732195 0.0356969 -0.0028948 
457 2 -7.70968 0.704513 0.366546 0.066698 0.0568454 0.0481961 
439 1 -6.42334 2.32965 0.560419 -0.00219634 -0.0112943 0.0156066 
445 1 -7.21777 1.27028 1.13831 0.00759638 -0.000517396 0.0184779 
433 1 -5.61606 3.39477 1.30925 0.0197039 -0.00497143 0.0435601 
434 1 -5.60671 2.96579 2.68124 0.00717238 0.0270336 -0.00252667 
440 1 -6.53881 2.08901 3.52141 0.0221762 -0.00919602 -0.00819071 
447 1 -7.18054 1.13053 2.58624 0.0146952 0.00489226 0.00115536 
448 1 -5.95535 2.01177 4.83647 0.00569766 -0.0179067 0.0189499 
460 2 -6.53515 1.16966 5.36866 -0.0492983 -0.109829 0.108214 
459 2 -7.71017 0.344273 2.94693 0.0156851 0.0943292 0.040205 
435 1 -4.9363 4.14711 0.320949 0.011511 -0.00857503 -0.00686882 
451 1 -4.92118 2.61671 5.28909 0.000988905 -0.00205213 0.010575 
436 1 -4.45588 4.07663 3.20484 0.0143581 0.0193857 0.0116248 
442 1 -4.26832 3.69615 4.5446 0.0178477 -0.00134884 0.0155593 
437 1 -4.29609 5.27976 1.07714 0.0285683 -0.00509148 0.00728814 
438 1 -3.87254 5.14168 2.5184 -0.00996697 -0.00786522 -0.00573846 
452 1 -3.05972 4.54856 5.28933 0.0379783 0.0352914 0.005435 
467 2 -1.38427 5.47533 5.02721 -0.00205303 0.028499 -0.0576221 
455 1 -2.54787 5.78844 4.67631 -0.0114499 -0.00498883 0.0117495 
444 1 -2.80272 5.98318 3.12899 0.00535846 0.0019963 0.0106095 
466 2 -2.64713 7.98851 0.205633 -0.0217316 0.0448115 -0.0149426 
443 1 -3.52817 6.40993 0.622531 -0.00918122 -0.00270336 -0.0146042 
456 1 -2.49672 7.40632 2.73979 -0.0138397 -0.00715282 0.0248673 
468 2 -1.57792 7.68354 3.36499 0.00426286 0.0487837 0.0184985 
454 1 -2.66794 7.49213 1.25045 0.002331 -0.0177224 0.0124665 
67 2 10.3971 -5.14648 -11.4474 0.0590888 0.0325793 0.026604 
333 1 7.4046 -11.8247 19.389 -0.0288539 -0.0204629 0.013692 
64 2 7.92679 -4.76316 35.8089 0.0112903 0.140092 -0.0465363 
285 2 7.86846 4.80391 18.8107 0.0239253 0.0801048 -0.0179025 
273 1 7.13545 5.27981 18.1083 0.0210604 -0.0326474 0.00447358 
342 1 7.44537 -11.8584 17.9323 -0.0107417 -0.0121357 0.00535478 
270 1 6.21846 4.65457 17.2224 0.0182048 0.030805 0.0115685 
354 2 8.19752 -11.3125 17.3737 0.0589004 -0.00654446 0.0910787 
537 2 -5.23534 5.25479 19.6401 -0.0340138 0.0939868 0.147352 
540 2 -5.08196 4.93535 20.4056 0.0978488 0.0282828 -0.0532453 
269 1 3.82107 3.93242 18.0643 -0.032248 -0.0254296 0.0108112 
266 1 2.41854 4.1061 18.5259 -0.00732803 0.0050079 0.0348792 
278 2 1.86109 4.24964 19.4967 0.0391861 0.0131591 0.0756212 
261 1 4.86128 4.90189 17.8297 0.011518 -0.0148314 -0.0142394 
277 2 -0.0459975 5.8303 17.985 -0.0305689 -0.0375766 0.058012 
281 2 3.96386 2.80368 18.2932 0.0799391 -0.0170755 0.0462231 
259 1 1.95323 5.4309 17.9477 0.0107054 0.00137289 0.0023695 
279 2 -0.706542 8.01261 18.0974 0.0356526 0.0139022 -0.065685 
271 1 3.00392 10.6719 17.4753 0.0321333 0.00416465 -0.00306381 
254 1 2.97264 8.00378 17.4421 0.0167471 -0.0196551 -0.00153449 
256 1 3.97728 8.8888 17.1647 -0.0155816 0.0378167 0.0147221 
258 1 5.33887 8.40415 17.3532 -0.0142324 0.0178477 -0.000215414 
253 1 3.00587 6.60236 17.8133 -0.00513571 0.016103 -0.00402044 
262 1 4.05649 10.2666 16.9956 0.00389097 -0.00240371 0.0162866 
257 1 5.54544 7.23694 17.7297 0.0119703 -0.00240232 0.000365245 
255 1 4.41054 6.33766 17.8016 0.00715956 0.018578 0.00855152 
260 1 1.69575 8.61232 17.8227 -0.0017236 -0.00660672 0.0240237 
268 1 1.72939 10.216 17.8818 0.00691357 -0.0151677 0.0146697 
267 1 0.561879 7.89744 18.0533 -0.0231487 0.00767417 0.00911777 
265 1 0.859414 6.409 18.1037 -0.0257596 0.00220985 0.00389147 
280 2 1.14478 11.1036 18.0545 -0.116757 0.0575691 0.0479219 
272 1 4.92345 11.2549 16.3797 -0.0168305 -0.0109923 0.00857114 
63 2 5.55681 -6.38465 34.9853 -0.000432626 0.019862 -0.0131227 
275 1 6.0168 11.0966 17.3315 0.0166816 -0.0149619 -0.00412131 
264 1 6.08948 9.65769 17.8906 0.0228075 -0.020694 0.0179014 
274 1 7.668 7.9489 18.7959 -0.0067196 -0.00849978 -0.00245299 
276 1 7.37982 9.28887 18.4208 -0.0209677 0.0157881 0.0117062 
263 1 6.86727 6.82571 18.3749 -0.0185698 -0.0259658 -0.0172117 
286 2 8.71094 7.62269 19.1842 -0.0736686 -0.00850348 -0.0235903 
288 2 8.38448 9.69018 18.2149 -0.110959 0.054859 0.0073327 
282 2 6.03367 3.78459 16.4676 -0.030011 0.0251358 0.0146231 
283 2 2.83259 11.6475 17.9656 -0.064332 -0.0074933 -0.00330368 
353 2 9.7929 -11.853 20.3295 -0.124055 0.00221053 -0.0063381 
51 1 6.11787 -6.99396 35.82 -0.00599874 0.0106184 0.0201109 
61 2 4.3261 -8.33866 35.7104 -0.0444677 -0.0132105 -0.0297666 
287 2 6.82714 11.5316 17.4537 0.016711 -0.115232 -0.0672632 
122 1 -8.27111 12.5529 -4.20676 -0.0148015 -0.00874436 0.0224908 
117 1 -9.35035 12.1878 -6.3023 -0.0166896 -0.00399214 0.0105524 
134 2 -7.7623 13.0139 -3.41455 0.0149389 0.0354577 0.00582378 
126 1 -10.0259 12.6185 -7.53155 -0.0176476 0.00854296 0.00598602 
138 2 -10.3364 13.8135 -8.06935 -0.0236547 0.0282843 0.0367254 
125 1 -9.22732 12.9848 -5.1758 -0.0233581 -0.0118556 0.0208004 
137 2 -9.97203 13.938 -4.97334 -0.031161 -0.00362034 -0.0623581 
54 1 7.17344 35.5151 -8.57325 0.0184276 -0.00457795 -0.00336368 
57 1 8.4219 35.6666 -7.95743 0.0112871 0.0140901 0.00506939 
69 2 8.02772 35.2574 -7.00843 0.0376796 0.00140649 -0.0208278 
66 2 6.88259 34.6107 -7.89124 -0.0721213 -0.0694688 0.0370755 
70 2 11.324 35.9563 -7.33056 -0.0847406 0.0610706 0.0360994 
65 2 4.73867 35.4289 -10.122 0.0102083 -0.00456877 0.212331 
346 1 4.36627 33.7638 17.6965 0.0112629 0.0141647 0.017791 
351 2 5.81108 33.3844 23.7743 0.0382552 -0.0870272 0.0507772 
348 1 2.88719 33.7796 17.7258 0.0201525 -0.0153149 -0.0086345 
360 2 2.2831 32.9977 17.1644 0.0754283 -0.0549397 -0.0336611 
359 2 0.227125 35.0681 19.5572 -0.0569283 -0.0257329 0.00146417 
347 1 1.28807 34.3878 19.5846 -0.00944253 0.0115106 -0.00592505 
356 2 0.64688 32.806 21.3707 -0.0210946 0.0390393 0.0503227 
336 1 2.54284 34.7353 18.7746 -0.016083 0.028724 -0.0300678 
344 1 1.3126 33.2036 20.5431 -0.0296194 -0.00743405 -0.00451572 
330 1 3.70151 34.8733 19.7414 0.000885149 0.000709576 0.00640573 
334 1 2.83131 32.7238 21.0738 -0.00793629 0.00611367 0.00814447 
343 1 2.86834 31.5931 21.8711 -0.0097297 0.00376441 -0.00339802 
328 1 3.87243 33.686 20.6977 0.00668833 0.0119571 -0.000915807 
355 2 1.8774 31.1922 22.2133 -0.0389524 -0.0698659 -0.00312052 
340 1 4.1556 31.1128 21.8804 -0.0156215 -0.0254893 -0.000493429 
352 2 4.27039 30.472 22.7964 -0.0442545 -0.0553719 0.0648036 
329 1 4.98737 35.4034 19.3992 0.00308626 -0.0065216 -0.0136549 
350 2 9.35743 35.1476 22.2603 -0.066993 0.0233608 -0.0275304 
327 1 6.30748 35.3924 20.1297 -0.00981671 -0.0184747 0.00239476 
349 2 8.33742 33.6158 23.9986 -0.0538007 -0.0671152 0.0141355 
326 1 5.25983 33.3055 21.1011 -0.0105501 0.0126753 0.0223555 
338 1 8.58699 35.2683 21.4071 -0.0295986 0.0187025 -0.00574567 
337 1 7.63443 33.4844 23.1155 -0.00171105 -0.0295408 0.0129125 
331 1 7.6637 34.2566 21.8605 0.0050153 0.00636846 0.0205384 
325 1 6.45732 34.3065 21.1324 -0.0101264 -0.00485972 -0.00667285 
339 1 6.32126 32.6939 22.849 0.0163363 0.0153448 0.0091724 
332 1 5.25328 32.042 21.7122 -0.0021166 0.0153394 0.0157356 
345 1 6.44586 35.3356 17.1728 0.00944835 -0.0015912 -0.020193 
335 1 5.21878 34.9506 17.9351 -0.00707818 -0.0266641 0.0118613 
357 2 7.05429 34.8961 16.4526 -0.0762043 0.0270071 0.00568546 
358 2 4.64585 32.85 18.1245 -0.0290316 -0.127788 0.0204266 
341 1 8.65116 35.9291 20.1031 -0.00499038 -0.0158256 -0.00968303 
284 2 4.78249 12.4579 16.0444 -0.0665575 -0.0393771 0.0666459 
72 2 13.0762 -10.935 -8.92178 0.0118754 0.0310051 -0.0065093 
8 1 35.6919 7.05307 7.20692 -0.0218578 -0.0169168 -0.0130319 
22 1 34.8634 4.92971 0.97827 -0.00439801 0.0221476 0.000248788 
59 1 12.2625 -8.96079 -11.0532 0.0111136 -0.0269034 -0.0263982 
248 2 35.6149 -11.2181 -2.77594 -0.0108008 -0.0621485 0.0604332 
235 1 35.8842 -8.39465 -2.67677 -0.00467609 0.0078221 0.00603345 
247 2 35.7005 -8.94705 -1.79921 0.0312317 -0.00481626 0.0564325 
236 1 35.4599 -10.6199 -3.72581 0.0121967 0.00887905 -0.00723939 
239 1 35.3889 -11.2743 -4.85919 -0.00304421 -0.00775644 -0.00419862 
226 1 35.9948 -9.26213 -3.93 -0.0060626 0.00956438 -0.00933423 
561 1 14.6787 -11.0568 3.49536 0.0212052 0.0102825 0.0245232 
558 1 15.8759 -10.427 3.7949 -0.00875796 -0.000149697 0.0180542 
557 1 18.2728 -11.2959 3.87969 0.0171083 -0.00540015 0.00101794 
569 2 18.2603 -11.0932 4.89294 0.0414831 0.0784421 -0.120994 
570 2 15.7629 -9.49606 4.36526 0.0651191 -0.0296833 -0.0118152 
549 1 16.9316 -11.3048 3.36174 -0.0139739 -0.0177048 0.0225112 
573 2 13.5946 -10.6403 3.85954 0.0812926 -0.0237362 -0.00937711 
554 1 19.4305 -11.6557 3.2695 0.0159314 -0.0156526 0.000998773 
566 2 20.4074 -11.9634 3.69306 -0.0183296 -0.0942544 0.0120822 
29 2 31.4558 2.83632 6.096 0.0140302 -0.0483475 -0.0606127 
11 1 34.8949 4.0709 2.1912 -0.0106888 -0.0138292 -0.0137209 
17 1 32.332 3.46667 5.89475 0.0142157 0.0241752 0.0136525 
9 1 33.2715 3.36096 4.73904 0.00981042 0.00256781 0.00107872 
30 2 33.588 1.446 3.24503 0.0169536 -0.0339222 -0.0353778 
33 2 34.0374 1.91218 1.19966 -0.0468145 -0.0710163 -0.0241567 
21 1 34.132 2.69444 2.13877 -0.0074622 0.0206635 0.00522682 
18 1 33.328 2.68544 3.39151 0.000107789 -0.034038 -0.0308667 
3 1 34.2591 4.45486 4.80794 -0.0237063 -0.0228901 -0.0106513 
5 1 34.8387 4.86647 3.51895 0.0188725 -0.0201847 0.0354577 
24 1 35.8452 6.02432 1.24088 -0.00504564 0.0394024 -0.0168602 
34 2 34.2937 4.76739 0.121775 -0.0518001 -0.0256158 -0.0363353 
7 1 33.2941 5.17443 7.10003 0.028451 0.0115282 -0.000428445 
26 2 31.9731 4.20561 8.10246 -0.0803716 0.0176165 -0.0500475 
14 1 32.2599 4.18663 7.15951 0.0247758 -0.00438098 -0.00901754 
1 1 34.0708 5.51718 5.72578 0.0310223 -0.0128491 -0.0165098 
2 1 34.9976 6.17347 5.91157 0.0221817 -0.0261965 -0.0132439 
27 2 35.4628 7.15975 9.18331 0.010217 -0.0361414 -0.024209 
25 2 33.0877 5.5508 9.36733 -0.0154648 -0.00819989 0.0439178 
13 1 33.7343 5.83114 8.30787 0.018776 0.000848299 0.00664632 
15 1 35.0714 6.53133 8.46426 0.00939244 0.00539918 0.0164596 
4 1 35.6519 6.59122 4.63724 0.029434 0.0267286 -0.0127577 
228 1 35.8005 -10.6827 -6.3735 0.0166005 0.0225952 0.0139556 
60 1 12.0302 -10.6266 -8.75635 -0.00382412 0.00104224 -0.0301546 
240 1 35.7916 -11.3893 -7.57485 -0.00736107 0.0239931 -0.0171665 
220 1 35.9421 -8.63276 -5.30269 -0.0010753 -0.0102773 0.00258902 
71 2 17.8481 6.32162 -11.3075 0.0628995 -0.0539115 0.0759618 
36 2 35.8793 6.63412 0.337292 -0.0423207 -0.0125238 -0.0582455 
68 2 13.2783 -8.86917 -11.5445 0.0676435 -0.0810004 0.200059 
522 1 32.964 -10.0577 32.6102 0.00305421 -4.41876e-05 -0.0105881 
507 1 35.1498 -9.83334 33.9898 0.0128127 0.0276188 -0.00781641 
518 1 34.5241 -7.16591 34.8025 -0.0196922 -0.0197494 0.00861001 
513 1 33.9316 -9.15903 33.3858 0.003775 -0.0157174 -0.00483179 
511 1 35.7715 -7.80901 35.128 -0.00161772 -0.0109153 0.00262009 
530 2 34.3393 -5.97042 35.2424 -0.00939476 0.019434 -0.0696405 
533 2 32.9984 -7.18586 33.0209 0.0442936 0.0429487 0.12784 
509 1 35.2566 -11.1225 33.2848 -0.00978169 0.00847347 0.00918805 
521 1 33.6692 -7.65064 33.7049 0.00847905 0.0182451 -0.0198404 
525 1 32.9403 -11.4878 32.3776 0.00059163 -0.00563528 0.0110528 
548 1 19.7104 33.1086 1.18641 -0.00413874 -0.0142424 -0.00917925 
572 2 16.1624 30.4758 0.80438 -0.0132202 0.0592225 -0.0039624 
571 2 19.0067 31.0705 -1.06279 -0.0195255 0.0220001 -0.0727091 
252 2 35.0552 35.7801 -7.54509 -0.0954438 -0.0343886 0.0626208 
562 1 13.5867 35.1703 1.80695 0.0065751 0.00750346 -0.00116105 
560 1 15.88 31.3383 0.215178 -0.0194378 0.0157825 -0.00229303 
563 1 14.7077 32.016 0.247698 -0.0121029 0.0136792 -0.00259457 
575 2 13.759 31.6567 0.841762 -0.0715237 -0.0459954 -0.0105888 
576 2 12.7003 33.756 0.799441 -0.0588864 -0.0619333 0.0900352 
564 1 13.7409 33.8476 1.32726 0.0120837 -0.00601103 -0.00641124 
551 1 14.6687 35.6112 2.71751 -0.006567 0.0299434 0.00933082 
545 1 15.904 34.9874 2.34651 -0.0205157 -0.00814032 0.0151979 
550 1 17.2434 32.2713 0.244754 -0.00851349 -0.0190144 -0.00139501 
552 1 14.8898 33.2407 1.19348 -0.00223572 0.014991 0.00087382 
546 1 15.9817 33.8001 1.69483 0.0251908 0.00744303 -0.00596734 
543 1 17.0346 35.8436 2.07261 0.0055892 0.0208809 0.0151765 
544 1 17.2296 33.2996 1.04855 -0.0178354 0.0176485 -0.0442773 
541 1 18.325 35.2127 1.59558 0.0214954 0.0112765 -0.00736184 
555 1 20.7686 33.3899 1.68843 0.018547 -0.00849964 0.0323733 
559 1 18.4488 31.4935 -0.030377 0.0125976 0.0142838 -0.00275752 
547 1 19.6288 35.4771 2.10489 -0.0141906 0.0208877 0.00621923 
542 1 18.4243 33.9091 1.38997 0.00183461 0.00553781 0.00457322 
553 1 21.032 34.7788 2.00442 0.00712305 0.0134651 -0.0373476 
565 2 21.7126 34.9078 1.25938 0.0388619 0.036848 0.0539035 
567 2 21.6122 32.7869 1.62802 -0.023013 0.0501095 -0.0502122 
568 2 20.5468 30.8011 0.464234 0.0308306 0.011618 -0.138248 
556 1 19.6063 31.5074 0.764421 -0.0128239 0.0219108 -0.00813781 
574 2 12.5002 35.4318 1.69578 0.0521299 -0.00842124 0.072756 
251 2 35.2237 35.522 -5.06257 0.100771 -0.00788262 -0.00208995 
526 1 34.8062 34.5983 32.0043 -0.00865064 -0.0106795 -0.00290276 
515 1 34.3744 35.9185 32.4974 -0.000644666 0.00376783 -0.0239104 
534 2 32.2298 35.7516 32.1446 -0.0624815 0.0221562 0.0608447 
227 1 37.9715 -9.92839 -8.30596 0.00987919 0.0196713 -0.0443281 
249 2 38.9195 -10.0237 -9.96047 -0.0780781 -0.0231672 -0.022295 
237 1 38.7663 -9.34256 -9.30134 0.00724719 -0.0157662 0.00543679 
221 1 37.2426 -8.77075 -7.55517 -0.0123807 0.00745083 0.020045 
234 1 38.7122 -7.95033 -9.51773 0.020241 -0.0171805 0.0206529 
246 2 39.2097 -7.54826 -10.3262 -0.0453265 -0.0240231 -0.047564 
219 1 37.1664 -7.38318 -7.85587 0.0267138 0.00136839 0.0201849 
222 1 36.5659 -9.44759 -6.38422 -0.0131859 0.0129087 0.0297552 
225 1 38.0305 -6.7975 -8.72158 -0.0227952 0.00615734 0.000928283 
238 1 36.9886 -10.9075 -8.39874 -0.0317823 0.0206602 0.0122731 
31 2 38.3772 8.24877 5.6735 0.0105314 0.0437512 -0.0591415 
217 1 37.2898 -6.87037 -6.37767 0.0146544 0.0068577 0.00693218 
233 1 38.4432 -5.40896 -8.39276 0.0100278 0.0170557 -0.00174345 
245 2 38.5185 -4.54403 -9.01983 0.0387727 -0.0366716 -0.0332176 
230 1 39.2375 -5.50149 -7.13999 0.0322045 -0.0175577 0.00692331 
244 2 36.6649 -6.73807 -1.57257 0.0567154 0.0522695 0.103211 
497 2 50.0229 1.11129 5.38965 -0.00549497 0.0169131 -0.0465622 
383 1 41.7237 -0.844799 -11.074 0.00562491 0.0110721 -0.0279762 
395 2 42.1401 -1.57977 -10.4993 0.060195 -0.0389002 -0.0792961 
242 2 40.2217 -4.98958 -7.18855 -0.007788 0.0513752 -0.00092109 
28 2 37.4394 7.49842 8.25901 0.109768 0.0366616 0.01161 
376 1 41.1267 3.53188 -11.503 0.00792678 0.0224382 -0.012834 
370 1 40.108 1.39449 -11.5495 0.00512183 -0.0124939 -0.0247075 
379 1 40.4543 2.70733 -10.6975 -0.00844638 0.00514678 -0.0253394 
388 2 41.3654 4.64541 -11.3867 0.0580343 -0.0571524 -0.00804362 
380 1 40.7932 0.245115 -10.7962 0.012846 -0.00650532 -0.00483511 
391 2 40.4881 2.57859 -9.60267 0.116844 -0.00321479 -0.0920556 
392 2 40.5712 0.511342 -9.7086 0.0579728 0.00806144 -0.00595269 
531 2 39.2365 -6.88692 -11.7891 0.0448978 -0.0388357 -0.0169547 
12 1 36.4473 6.5076 2.39797 -0.00762828 0.00471148 0.00738186 
232 1 36.5148 -7.23366 -2.6538 -0.00335247 0.0158154 0.00298219 
224 1 37.1039 -6.62194 -3.85076 -0.0110437 0.00239994 -0.0120346 
231 1 38.0254 -5.74775 -3.7251 -0.00736909 -0.0246975 -0.0329912 
6 1 36.0289 5.711 3.6192 -0.0191389 0.0100636 -0.0246412 
218 1 36.606 -7.39656 -5.23051 0.00122334 0.00788862 -0.0207704 
243 2 38.091 -5.06238 -2.61223 -0.0552477 0.0322605 0.0472771 
223 1 38.5393 -6.08139 -6.07144 0.0115414 0.00598308 -0.016029 
241 2 40.0801 -5.50736 -4.55341 0.0325407 0.022859 -0.0854045 
229 1 39.042 -5.76215 -4.82045 -0.00678858 0.0138879 -0.0187895 
499 2 44.8391 1.13458 -1.42968 0.0541703 0.0628605 0.0397964 
488 1 46.6102 -1.24857 -1.9007 0.00630092 0.00228021 -0.0112544 
500 2 45.5773 -1.02899 -2.51127 -0.0254529 0.0158032 0.0247904 
478 1 46.4125 -0.1298 -0.679855 0.0178966 0.0154232 0.0276311 
491 1 47.5491 -2.36204 -2.08885 0.0181733 -0.0308907 -0.0172974 
503 2 47.6295 -2.85997 -3.24496 -0.063201 0.0222973 0.121295 
480 1 48.568 -2.01428 -0.871148 0.00762366 0.0120408 -0.00441316 
504 2 48.7768 -4.34531 -0.387457 -0.0429561 -0.035096 -0.174869 
492 1 49.3123 -3.35026 -0.496998 -0.0229448 0.00335606 -0.0144325 
487 1 45.4404 0.743156 -0.439498 -0.0251199 0.017851 0.0165935 
472 1 47.326 -0.283479 0.366507 -0.00358121 0.00438064 -0.00167985 
498 2 52.2474 0.0922655 3.72638 0.000174047 0.00155332 0.0374897 
474 1 48.5489 -1.0284 -0.00328033 -0.00980783 0.0114439 0.0274161 
473 1 49.4462 -1.03019 1.04586 -0.0424031 0.00496623 -0.00929936 
502 2 51.1587 -3.95229 0.497435 -0.041176 0.0202452 0.0697348 
490 1 50.4238 -3.13456 0.3871 0.0114898 -0.0180702 0.00262798 
479 1 50.613 -1.94827 1.07735 0.0312826 -0.0270544 -0.00352875 
489 1 51.7207 -1.43698 2.08738 0.0115027 0.00359227 -0.00908887 
501 2 52.7492 -1.76768 2.12052 0.065327 -0.0119286 -0.0230362 
471 1 49.4222 -0.0729014 2.21634 0.033776 0.0150461 0.00162476 
486 1 51.5232 -0.527824 3.11391 0.0242398 -0.0156745 -0.0145556 
477 1 50.1101 -0.263154 3.30791 -0.0150253 -0.0105961 0.000538162 
16 1 36.8529 7.3966 7.38674 0.00733327 -0.0223871 0.00595247 
35 2 37.3634 8.82696 1.89801 0.0498501 -0.00361952 -0.0173246 
250 2 37.595 -11.786 -9.25863 0.0540185 0.0333203 -0.0182514 
529 2 36.4147 -6.34495 -11.4284 -0.0710471 -0.0767475 -0.0345498 
484 1 45.1879 1.243 0.961823 0.031696 -0.00782007 0.00222205 
496 2 44.8487 2.1669 1.03257 0.0286867 0.0315647 0.00521842 
470 1 47.2422 0.124063 1.80758 -0.00860622 -0.0114773 0.0168553 
476 1 46.2521 1.289 1.88115 0.0151833 0.0156983 -0.00449249 
495 2 45.2643 1.96507 3.57502 -0.095129 -0.067605 0.0642221 
493 2 46.6926 3.25675 4.93907 -0.0673962 0.0485532 -0.0249011 
483 1 46.0893 2.30669 2.88671 -0.0275836 -0.00607705 -0.0271625 
494 2 47.1677 -0.352668 4.70088 -0.0307973 0.0089186 -0.0303659 
469 1 48.2639 0.951142 2.56555 0.00234766 0.0225003 -0.0193809 
481 1 47.0176 2.69791 3.93134 0.0278103 -0.00539633 0.0298844 
475 1 47.8517 1.63127 3.77081 0.00184436 -0.0115265 -0.00906737 
482 1 47.9312 0.454555 4.95627 0.00686479 0.00284841 -0.0136321 
485 1 49.4615 0.156371 4.77495 0.00434983 -0.00197246 -0.0273565 
10 1 36.7442 7.24054 4.90862 -0.0138487 0.0116569 0.0134046 
19 1 37.5017 7.7853 6.04174 0.00392138 -0.000582993 -0.0152779 
32 2 36.6286 9.24931 3.92569 0.0315731 -0.0355989 0.0183166 
20 1 37.0874 8.33188 3.93689 -0.013928 0.00195486 -0.00319155 
23 1 36.9781 7.98287 2.5011 0.00802548 -0.002131 -0.00802661 
93 1 50.1015 5.75712 29.3065 0.0234596 0.00498731 -0.00195675 
90 1 51.1978 4.74513 28.9564 -0.0213011 0.00631899 -0.00903621 
102 2 51.1135 3.66554 29.0964 -0.0190581 0.0550076 0.00334946 
81 1 52.4588 5.54706 29.1484 -0.0053894 0.0242841 -0.00822706 
101 2 53.2385 4.58578 27.8286 -0.044729 -0.0382993 -0.0581966 
89 1 53.7645 5.30401 28.6045 -0.00436983 -0.024372 0.00344651 
83 1 49.6722 6.99517 29.7912 0.00976464 -0.0242606 -0.00679493 
77 1 51.0752 7.44039 30.4891 -0.0113744 0.00425886 0.00984547 
73 1 53.5777 7.56799 29.1696 0.0168167 -0.0108471 -0.00390237 
75 1 52.378 7.01911 29.6722 -0.0354238 0.00209609 0.0199454 
74 1 53.5321 8.93748 29.7733 -0.00592857 0.0119812 0.0108135 
79 1 54.9511 7.07257 28.6351 0.0103524 -0.00728912 -0.0124758 
85 1 56.1415 7.95378 28.6439 0.00807153 -0.00299151 -0.0391052 
86 1 55.1101 5.71982 28.4467 -0.0124323 -0.0338218 0.0249406 
98 2 56.3417 5.61602 28.1873 0.0862042 0.0232689 0.115964 
97 2 57.058 7.90415 28.1334 0.0214751 -0.036132 -0.0840005 
510 1 36.7482 -11.4466 33.0904 0.0176127 -0.0167827 -0.0108775 
372 1 41.6196 -1.25346 35.5443 0.0203667 -0.030423 0.00503414 
508 1 37.8205 -10.4654 33.6532 0.0121433 0.0178885 0.0489197 
514 1 39.025 -11.0283 33.857 0.00283423 0.00399668 0.0277107 
506 1 37.579 -9.10498 33.8806 0.0115745 0.00707019 -0.0098664 
512 1 38.4149 -8.24587 34.584 -0.0126796 0.00363331 -0.0183197 
523 1 39.988 -10.1385 34.5326 -0.00543392 -0.0317857 -0.020389 
535 2 41.0009 -10.5155 34.8179 -0.0512138 -0.0456098 -0.0351001 
520 1 39.79 -8.8259 34.657 0.0188527 -0.0168998 0.0160886 
519 1 38.3386 -7.2596 35.7531 0.0183975 -0.0277261 0.0184513 
532 2 40.7315 -8.33512 35.1106 -0.0867675 -0.0638429 0.0641757 
364 1 40.3459 1.16151 35.1631 -0.0244929 0.0274723 -0.0443532 
87 1 55.9786 9.16519 29.1636 -0.0360184 0.0261484 0.00656833 
378 1 41.9269 -0.842723 30.3109 0.0184534 0.0159171 -0.00498427 
393 2 42.3865 -2.82192 31.2771 -0.0510358 -0.0212285 -0.113323 
381 1 42.0839 -1.77026 31.4257 -0.00343471 0.00103714 -0.0345153 
396 2 42.2571 -3.33757 35.6336 -0.0138262 0.0863252 -0.100806 
371 1 42.4234 -1.47682 32.8641 0.0160341 0.0200318 0.0174711 
365 1 41.4095 -0.354521 33.1695 0.00382907 -0.0102327 -0.0114162 
394 2 41.8079 -3.60813 33.0391 0.0697754 -0.11985 0.0159981 
382 1 41.7697 -2.68483 33.454 0.0312429 0.000583974 -0.0257487 
390 2 42.3948 -1.16389 29.4042 0.108748 -0.018335 0.047376 
384 1 42.0012 -2.45067 34.8443 0.0162166 -0.0254515 0.000968575 
366 1 41.0759 -0.215691 34.5501 0.00453211 -0.00394668 0.0209544 
369 1 41.8746 0.572014 30.9764 -0.0258201 -0.0107556 -0.00601784 
367 1 41.3846 3.20634 32.1512 0.000954126 -0.00531385 -0.00798484 
363 1 41.2682 0.823667 32.2431 -0.0212084 -0.00560431 -0.0232315 
361 1 41.3651 2.14128 33.0701 -0.00725891 -0.0187098 -0.00318156 
373 1 41.1301 4.36974 32.7355 0.00246552 0.00688252 -0.0140553 
374 1 42.1604 2.98736 30.7719 -0.0226921 0.0125673 -0.0237153 
385 2 41.1897 5.08108 31.9241 0.100931 -0.0366143 -0.0558736 
375 1 41.3342 4.52928 34.1263 0.0115441 -0.00912342 0.0163756 
362 1 40.9531 2.10903 34.401 0.0158164 0.0147227 -0.0161615 
387 2 41.3328 5.61787 34.3818 0.0255905 0.0270487 -0.0257331 
368 1 41.1602 3.42564 34.9806 -0.00160522 -0.00252148 -0.0120912 
386 2 42.9226 3.5016 30.2119 0.121993 -0.05522 -0.0712548 
389 2 43.2786 2.01501 29.5527 0.0195241 -0.00188021 -0.050473 
377 1 42.58 1.77217 30.3367 0.000198797 -0.0141235 0.00765571 
106 2 47.5778 7.80051 29.5782 -0.00303444 0.00498256 0.0307637 
108 2 48.2896 9.99717 30.4201 -0.0773632 -0.0478717 -0.0619402 
107 2 49.7784 11.0122 32.9964 -0.0668917 0.0171 -0.0607131 
94 1 48.6528 8.02657 30.0219 0.0254957 0.0238255 -0.00119442 
96 1 48.9566 9.16286 30.4025 0.000749125 0.0118385 -0.0132746 
82 1 52.7952 10.9461 31.4029 0.00157246 -0.0119026 -0.0149355 
84 1 50.2177 9.77309 30.992 0.0279411 0.0354209 0.0281271 
76 1 52.8288 9.58972 30.771 0.0100147 0.0223933 0.0120354 
91 1 54.026 11.5253 31.5906 0.000163051 0.0201682 0.00969042 
78 1 51.3648 8.79567 30.8073 -0.013055 -0.0121615 0.0315047 
95 1 50.5384 10.8459 32.0546 0.00284902 0.00833835 -0.00845207 
92 1 51.7314 11.2203 32.544 0.034705 -0.00845433 -0.0103243 
99 2 56.6919 9.9721 29.0432 0.0941686 -0.0136414 0.0485916 
505 1 36.1422 -8.93225 34.5016 0.013233 -0.00584938 -0.0178374 
80 1 54.8639 9.69394 29.9348 0.0203978 -0.0192477 -0.00775915 
88 1 54.737 10.9843 30.3658 0.000655807 0.0173464 0.00922514 
100 2 55.7666 11.2988 30.1093 0.0344568 -0.0570076 -0.00837356 
517 1 36.9813 -7.03137 35.8358 -0.0119719 0.015002 -0.0206382 
432 2 46.0459 25.04 6.69272 -0.0470118 -0.0273303 0.0061791 
430 2 44.6294 26.6721 8.69587 0.0579879 -0.032555 -0.0394683 
407 1 44.1989 25.1709 9.69581 -0.00206275 -0.00105273 0.00469805 
424 2 40.7632 20.3676 5.24505 0.0602701 -0.0938322 -0.0345028 
412 1 41.3957 20.541 6.10215 -0.000793561 -0.015212 0.0246509 
406 1 43.7106 20.5855 7.05515 0.0132197 0.0108489 0.0041053 
427 2 42.8049 19.6735 4.99046 -0.00506589 0.0544814 -0.0171066 
415 1 42.6696 20.2682 5.81774 -0.0108663 0.0167827 0.0123824 
428 2 45.5891 19.8927 6.35833 -0.0278144 -0.0587107 -0.00827433 
416 1 45.0328 20.793 6.44052 0.00767174 0.00713839 0.00549455 
397 1 41.2129 22.4436 9.52619 -0.00939382 0.0140488 0.0113 
421 2 38.3297 21.3565 9.78686 0.00561833 -0.0247699 0.0193986 
403 1 40.2667 22.3034 10.4773 0.00175501 0.0139574 -0.00657954 
401 1 43.2201 24.1426 9.13824 -0.00367229 -0.0114508 0.00470536 
410 1 40.2316 22.8674 11.8892 0.0118088 0.0146034 0.0409634 
409 1 39.4765 21.3246 9.50945 -0.0338618 -0.0131394 0.00832278 
404 1 40.8202 21.3768 7.51409 8.91028e-05 -0.0109163 -0.00175725 
423 2 38.696 20.7059 7.26443 0.00469119 0.10031 -0.0241529 
411 1 39.4978 21.0575 8.06284 0.00403765 0.012702 0.00699281 
398 1 41.8267 21.7564 8.41201 -0.0209637 -0.00800934 0.0112916 
399 1 42.2382 23.7222 10.0262 0.0051094 -0.00801041 0.004135 
402 1 43.7294 23.029 8.29547 0.00613172 -0.0279621 0.0183468 
400 1 43.2765 21.7107 7.76077 -0.0366583 -0.0135923 0.0407802 
431 2 46.0116 22.8649 6.01517 -0.00673356 0.00778477 0.0709252 
419 1 45.3489 22.305 6.76225 -0.00222054 -0.0169052 -0.00992982 
405 1 42.0589 24.4007 11.3275 -0.0248909 0.0105045 0.0187378 
417 1 44.0015 26.1195 10.9381 0.016629 -0.017959 -0.0267697 
418 1 45.1293 25.6576 8.67958 -0.00803107 0.0112539 -0.00132257 
408 1 44.9137 23.2849 7.57498 -0.0244047 0.00554606 0.000149009 
429 2 44.6498 26.7583 11.4816 0.0271102 -0.00983543 0.141082 
414 1 42.7673 25.6626 11.5446 0.003365 -0.0173647 0.00387075 
420 1 45.3656 24.8686 7.58865 0.0321211 -0.0101439 -0.0125164 
425 2 41.105 24.1209 13.4582 0.043583 -0.0190591 -0.0109172 
516 1 37.1999 35.0296 32.9229 -0.0184005 0.012144 -0.00524504 
527 1 38.6222 34.6385 33.1051 0.0105017 -0.0165508 -0.0104783 
199 1 38.0337 16.4986 28.3209 0.00527292 -0.0246141 -0.0124704 
211 2 36.9924 16.7871 27.8259 0.0660889 0.0452742 0.0929069 
196 1 38.9692 17.4994 28.0381 0.00821071 0.0106198 -0.00662532 
208 2 39.1807 17.6023 27.0977 0.00633833 0.0499439 -0.0157037 
188 1 38.7672 18.9004 28.647 0.0181162 0.0157287 -0.00729247 
195 1 38.9311 20.2898 28.0867 0.0173754 0.0208143 -0.00364169 
193 1 39.2643 21.4638 28.9922 0.0124326 -0.00995746 0.000701756 
207 2 38.7383 20.0956 26.9412 0.022113 -0.0337208 -0.00944442 
205 2 39.7363 22.4533 28.7549 -0.0591307 -0.0506211 -0.0730259 