ITEM: TIMESTEP
120000
ITEM: NUMBER OF ATOMS
576
ITEM: BOX BOUNDS pp pp pp
-1.2000000000000000e+01 8.4000000000000000e+01
-1.2000000000000000e+01 3.6000000000000000e+01
-1.2000000000000000e+01 3.6000000000000000e+01
ITEM: ATOMS id type x y z vx vy vz 
302 1 -9.79746 11.0819 33.9383 -0.0106054 0.00424213 -0.0208012 
306 1 -6.03589 11.2951 32.6331 0.00847089 0.00558698 -0.00258203 
318 2 -5.51988 11.4849 33.5783 -0.0349321 0.0332718 -0.0232059 
317 2 -7.78899 10.5701 34.5297 0.118808 0.0766168 -0.0725796 
297 1 -7.42232 11.6182 32.8218 0.00842223 0.00863077 0.0222848 
305 1 -8.42222 10.8267 33.8397 0.0172814 0.005298 0.0359825 
314 2 -10.4272 10.7894 34.6707 -0.0458881 -0.0199389 -0.0413661 
309 1 -5.42472 11.832 31.4485 -0.00177897 0.0269522 0.0234741 
321 2 -4.8907 11.4148 30.373 -0.0126683 0.00772351 -0.050934 
295 1 -10.4471 11.7093 32.7002 0.0105949 -0.0280814 0.0288091 
301 1 -11.8967 11.7305 32.341 0.0019717 -0.00832919 -0.0147386 
550 1 0.258149 16.8617 4.4087 0.0120709 0.00429003 -0.00612434 
575 2 2.92774 16.2966 2.62821 -0.0224781 0.0143356 -0.0104288 
563 1 2.04395 17.0945 2.9658 0.00437748 0.0126573 -0.0231835 
572 2 1.77285 15.394 3.90237 -0.0305655 -0.0211783 -0.0831154 
560 1 1.4186 16.2645 3.86639 -0.000620892 -0.000325949 -0.00812321 
565 2 -4.48583 20.814 5.49176 0.0949611 -0.0727602 -0.016958 
553 1 -3.5664 20.3532 4.99052 -0.00682081 -0.0164539 0.00191042 
554 1 -2.45923 22.6617 4.31585 0.0130013 0.00152605 0.0127429 
547 1 -2.3853 21.2363 4.55601 -0.0149879 -0.0108602 0.0118583 
557 1 -1.66273 23.4865 3.45107 0.00845446 0.00395465 0.0206164 
541 1 -1.13005 20.6626 4.52076 -0.00182305 0.00153433 -0.00927093 
543 1 -0.353805 21.5993 3.64916 0.036415 0.00766191 -0.0340926 
549 1 -0.34963 22.9414 3.45412 0.010309 -0.0199243 -0.002535 
542 1 -0.780354 19.2739 4.94707 0.0204212 -0.00129779 0.000493426 
544 1 0.169676 18.2847 4.09826 -0.0276861 -0.0246047 -0.0421648 
548 1 -1.90907 18.3606 5.28023 0.00962843 -8.46965e-05 -0.0169596 
566 2 -3.40275 22.961 4.74607 -0.0594686 0.0431672 -0.00612269 
555 1 -3.11843 18.9765 5.20794 0.027567 -0.0160371 0.0337636 
558 1 0.939469 23.5292 2.73467 0.00739167 0.0205704 -0.0171147 
545 1 0.967803 20.6495 3.25686 0.00182694 -0.00902732 0.000410709 
546 1 1.09422 19.1869 3.52837 -0.0350959 0.00513969 0.00427854 
551 1 1.5732 21.5039 2.32827 -0.0015101 0.0117955 0.018258 
561 1 1.69767 22.9173 1.89868 0.0109851 0.0067726 0.0108784 
552 1 1.94985 18.4362 2.52008 0.028633 0.0209622 0.0115179 
562 1 2.66393 20.6106 1.43718 0.00855626 -0.00660643 -0.00863386 
573 2 2.43625 23.1037 1.2775 0.0379432 -0.04125 0.0282708 
574 2 3.75253 21.0075 1.56642 -0.016332 -0.0679304 0.00705375 
564 1 2.28563 19.2394 1.38353 0.00265563 -0.0125396 0.00509337 
576 2 2.51107 18.8301 0.330936 -0.0023425 -0.050354 0.037197 
569 2 -2.06132 24.3082 3.81331 -0.00316292 -0.023036 0.0968361 
570 2 1.0419 24.6825 3.01077 0.0418729 -0.0341014 -0.0251975 
571 2 -0.356812 14.9755 4.83244 -0.0205207 0.0305697 0.0520098 
568 2 -2.03373 16.4609 7.02044 0.0377276 -0.0635707 -0.071334 
559 1 -0.869068 16.0638 5.03089 0.00904678 -0.00971049 0.00624828 
556 1 -1.56264 16.8702 5.96573 -0.0106809 -0.0224299 -0.00686745 
567 2 -3.7596 18.0313 5.69969 0.00253843 -0.0356301 -0.0420736 
71 2 5.16461 18.7184 11.9836 -0.0214826 -0.0439687 -0.0490211 
304 1 -11.7567 15.0839 30.4678 -0.0212721 0.015453 -0.00195925 
293 1 -7.53707 13.0558 30.6459 -0.0161265 -0.0141082 -0.0144626 
298 1 -10.3615 14.666 28.9158 -0.011976 0.00414576 -0.00288386 
307 1 -11.4893 15.6424 29.2566 -0.0134735 -0.0215489 -0.0132199 
319 2 -11.8477 16.6823 28.9372 -0.00613957 2.89389e-05 -0.0168957 
300 1 -7.42909 14.319 28.2448 0.00719235 0.0160437 -0.00229384 
320 2 -10.477 15.0893 26.4519 -0.0232147 -0.0708047 0.0722286 
308 1 -9.95956 15.0212 27.3434 -0.0369131 -0.000927034 -0.00896345 
323 2 -7.82206 15.9619 27.0042 -0.111583 0.082882 -0.0670866 
311 1 -8.44038 15.1167 27.3968 -0.0130615 -0.0153008 -0.0051832 
312 1 -6.47538 13.104 28.2219 -0.00890979 0.00197276 -0.0406319 
324 2 -6.8763 12.1043 27.5143 -0.0323293 0.000379403 0.00364187 
294 1 -7.98262 13.728 29.599 -0.0156613 0.00405211 -0.019922 
299 1 -6.03819 12.83 30.5507 -0.00012523 0.0118825 -0.0291749 
290 1 -10.138 13.1205 30.5983 -0.00739033 0.00225823 0.00591774 
291 1 -8.12032 12.5003 31.7586 0.00147081 0.0367011 -0.00445843 
296 1 -11.4552 13.5663 30.7754 -0.00038193 -0.0343774 -0.00570579 
310 1 -5.47623 12.9013 29.2241 -0.0251445 0.0355608 -0.0450413 
289 1 -9.52633 12.5999 31.9118 -0.00192367 -0.0247358 -0.0248667 
292 1 -9.37095 14.0996 29.8815 -0.00811352 -0.0156824 0.00554332 
322 2 -4.37764 12.842 29.2365 -0.0430837 0.0153011 -0.00600209 
140 2 20.1624 -7.66368 -10.8388 0.0201748 -0.0655891 -0.0740538 
136 2 23.527 -7.06735 -7.71622 0.04999 0.0300454 0.0358672 
139 2 22.6212 -7.2801 -10.0918 -0.0376848 0.108004 -0.00446732 
127 1 22.2847 -6.35211 -9.36262 -0.00263177 0.0302599 0.0162958 
124 1 22.914 -6.41561 -8.23499 0.00420766 0.00959045 -0.00950644 
116 1 22.4461 -5.25313 -7.34716 0.00258684 -0.00975474 0.0106884 
118 1 21.0592 -5.67775 -10.0414 -0.00398841 -0.0231266 -0.0167284 
110 1 21.4738 -4.35333 -8.05843 -0.00525848 -0.00368044 0.0134855 
109 1 21.8198 -2.90468 -7.9793 -0.0076754 -0.0163899 0.0201793 
112 1 20.6807 -4.57998 -9.20797 0.00410078 -0.0114349 0.0148808 
128 1 20.1449 -6.44928 -10.8262 -0.00643753 -0.0152845 0.00751868 
111 1 21.3139 -1.95397 -8.87402 -0.0150599 -0.00110117 -0.0139287 
114 1 20.2377 -3.67704 -10.3531 -0.00856552 0.0173393 0.0274916 
123 1 23.3136 -5.05073 -6.16304 -0.000347074 -0.0128865 -0.00965914 
113 1 20.4706 -2.29007 -9.91845 0.0156039 0.00485037 0.00883828 
121 1 23.069 -3.59232 -5.9321 -0.000563078 -0.0121347 -0.00367403 
115 1 22.6237 -2.51022 -6.90671 0.000700125 0.00529544 0.0398679 
122 1 22.8474 -0.965485 -6.66578 -0.0199925 -0.00919391 -0.0162911 
134 2 22.9655 -0.605611 -5.6045 0.0184245 0.00936578 -0.0820656 
130 1 18.8568 -1.92879 -11.8554 0.00533974 -0.000232465 0.00125853 
119 1 19.6944 -1.35491 -10.8668 -0.00498065 -0.0284929 0.00162474 
120 1 18.9855 -4.28031 -10.8438 0.00192414 0.0227315 0.0222194 
132 1 18.2392 -3.13882 -11.4291 -0.00797365 -0.0186961 -0.0158017 
133 2 23.0419 -2.67959 -5.14539 0.000820513 0.0239412 -0.0179702 
49 1 13.7995 5.49685 -5.26408 -0.00695301 0.010935 0.0289377 
61 2 14.2428 6.3859 -5.06905 0.00594478 -0.0761493 0.0044354 
38 1 16.1272 4.16503 -6.53806 -0.012417 0.0114481 0.0439067 
51 1 14.1233 5.36604 -6.64056 0.0126407 0.0318401 0.0103795 
63 2 13.2136 6.01485 -6.91225 -0.0647939 0.0415056 -0.0692431 
44 1 14.8916 4.35521 -7.38338 -0.0126861 -0.0204622 -0.0138795 
52 1 15.062 4.10668 -8.75211 0.00329049 0.0119577 0.000910058 
64 2 14.3361 3.97569 -9.40666 -0.0167067 0.0274544 -0.0129865 
40 1 17.4353 3.77008 -6.97317 -0.0387179 -0.00558364 -0.00221677 
55 1 16.3914 3.96849 -9.21581 -0.0172042 -9.03716e-05 0.00593471 
67 2 16.6732 3.43184 -10.1224 -0.0779163 -0.0418518 0.0780207 
68 2 18.7605 2.68368 -9.85421 0.0650965 -0.00599769 0.0803733 
56 1 18.5121 2.78667 -8.71119 -0.00909195 -0.00964123 0.0498864 
46 1 17.4805 3.62303 -8.3585 -0.00588526 0.0128764 -0.00914292 
59 1 19.6656 2.59462 -7.99512 -0.00814574 0.0302909 -0.0056719 
117 1 22.054 -0.61536 -9.00892 -0.0149592 -0.00545788 0.0195228 
125 1 22.9451 -0.445082 -7.90523 -0.0140127 -0.0206039 0.023214 
42 1 18.3619 3.34561 -6.22104 0.00140026 -0.0361914 -0.0155705 
126 1 21.6166 0.22483 -10.1758 -0.00618917 -0.0271894 0.0206604 
138 2 22.1193 1.20473 -10.5346 -0.0348264 0.0466398 0.0390049 
137 2 23.3782 0.613853 -8.09952 -0.00681367 -0.0447741 0.00361682 
129 1 20.121 0.0576611 -10.431 -0.00561339 0.00227217 0.00189654 
48 1 19.7354 2.57331 -6.49801 -0.00100447 0.0158472 -0.0239131 
276 1 17.4331 7.67735 -10.5014 -0.00622644 -0.0231857 0.00634409 
288 2 17.0324 7.5016 -9.56338 0.017524 -0.0255324 0.0161015 
274 1 16.2448 8.10992 -11.2002 -0.0088832 0.00982525 0.00636667 
286 2 16.0459 9.00678 -10.6144 0.0357655 0.011649 0.0242055 
264 1 18.9607 7.89227 -10.8505 -0.00319154 -0.0228739 -0.012084 
287 2 19.144 9.19149 -9.01894 0.0237036 0.0259045 0.109011 
275 1 19.5291 8.86541 -10.122 -6.08101e-05 0.0229733 0.0145637 
272 1 20.2116 9.75868 -10.8839 -0.0335976 -0.0164752 0.00341336 
284 2 20.3551 10.7582 -10.3832 0.00139469 0.0126808 0.0142052 
179 2 26.1098 10.3856 -11.6815 -0.0508912 0.0268867 -0.0364072 
65 2 15.7141 5.65735 -1.37472 -0.0855482 -0.0723487 0.0197484 
135 2 23.4628 -6.24784 -6.26605 0.0214557 -0.067225 0.0639884 
43 1 14.872 4.85415 -4.40778 0.0266262 0.00526923 0.0109373 
37 1 15.8815 4.11278 -5.17702 0.0414234 0.0188604 -0.00306767 
50 1 14.4179 4.69175 -3.04677 -0.00439795 0.00702343 -1.3276e-05 
53 1 15.6456 5.39671 -2.45786 -0.017606 0.00668264 0.00949496 
39 1 17.0178 4.34202 -4.38237 -0.00478551 -0.00631714 0.0102319 
66 2 17.894 5.68899 -1.28203 0.0312418 0.012389 0.0719205 
45 1 16.982 5.17481 -3.18454 -0.00776879 -0.00860855 0.0196389 
62 2 14.0839 3.78285 -2.61774 0.0233365 -0.00419828 0.0331312 
54 1 17.9864 5.24604 -2.21455 -0.0102586 -0.017482 0.0146192 
69 2 20.1108 5.03229 -2.02961 -0.0101997 -0.0163888 0.0264892 
70 2 20.8939 2.76365 -3.36764 0.00239086 -0.0189683 0.00150806 
58 1 20.3837 2.61947 -4.16171 -0.0180854 0.00334462 -0.00136245 
57 1 19.2467 4.64008 -2.83398 0.0166235 -0.00338095 -0.0221119 
47 1 19.3275 3.74554 -3.94053 -0.00697054 -0.00395779 -0.0235689 
41 1 18.1509 3.83892 -4.87926 0.0134271 0.00417099 -0.00775493 
60 1 20.6083 2.29677 -5.5329 0.013098 0.029893 -0.00602732 
72 2 21.6099 1.51702 -5.79414 -0.0263184 -0.0205041 -0.0293346 
131 1 18.9391 -5.73749 -11.4015 -0.0138378 -0.0056645 -0.0083709 
141 2 19.4503 0.656425 -11.0356 0.107093 -0.045194 0.0603628 
143 2 17.9412 -6.29863 -11.311 0.00969939 -0.0950994 0.0455045 
103 2 31.4189 -7.17603 25.1716 0.0150484 -0.0579576 0.0662119 
82 1 31.1199 -9.11606 25.6129 -0.00500037 0.0273715 0.00820888 
92 1 29.9086 -9.33123 24.9812 0.00747751 -0.0177284 0.0114346 
104 2 29.6023 -8.29672 24.3627 0.0978961 -0.0551054 -0.00904788 
91 1 31.8037 -7.88265 25.9848 0.032295 0.000367579 -0.0127783 
100 2 32.4299 -7.04857 27.7908 -0.0164693 -0.0192374 -0.108023 
88 1 32.5125 -8.03416 27.2822 0.047647 -0.00744243 0.0136958 
87 1 34.3627 -8.80733 28.9908 0.00771148 0.00213607 0.0282321 
99 2 34.2417 -7.72655 29.2294 -0.0181952 -0.0142779 -0.0219644 
509 1 29.3415 7.14039 32.0102 0.00278308 0.0137666 0.000693266 
74 1 33.2971 -10.1605 26.8517 0.00330416 0.016731 -0.0011083 
85 1 35.2419 -9.67807 29.0984 0.00407371 -0.031729 0.0177887 
79 1 34.8054 -10.8411 28.307 0.0177786 0.0276814 -0.00249221 
80 1 33.2479 -9.09524 27.7831 -0.0210184 0.003076 0.00701235 
73 1 33.6193 -11.359 27.4779 0.00397778 0.00485881 -0.0228343 
76 1 31.978 -10.2163 26.0893 0.0174647 -0.0106703 -0.00570329 
277 2 20.9976 7.18655 30.0694 -0.00374309 0.0825794 -0.0250529 
537 2 29.4794 7.03691 28.5062 -0.00756996 0.0523697 0.0361847 
525 1 29.4496 7.22376 29.5369 0.00291541 -0.00550678 0.00170641 
534 2 29.5099 9.33989 28.9966 -0.0153223 -0.0412731 -0.00954146 
522 1 29.4361 8.67684 29.8945 0.00686627 -0.00616022 -0.0150842 
532 2 34.9176 7.28363 34.7599 -0.0190776 -0.0188363 -0.0286862 
531 2 34.5876 9.59751 33.9892 0.0580292 -0.0932206 0.0364652 
95 1 29.5495 -10.6642 24.7839 0.00882869 0.010453 -0.0231822 
507 1 29.651 8.51939 32.2469 -0.00713532 -0.00506699 0.0182167 
511 1 31.0342 10.4077 33.2205 -0.00570736 -0.000206069 0.00608828 
282 2 14.5039 6.02481 32.7945 -0.0089584 0.00167294 0.0464293 
285 2 14.3551 7.55657 35.0778 0.0155187 0.0400127 0.00421048 
107 2 29.3346 -10.8385 23.7421 0.0313899 -0.0487415 0.00367681 
278 2 18.1569 6.32728 30.0385 0.0413421 -0.00309005 -0.0538891 
266 1 17.9179 6.98357 30.8273 0.00898364 -0.0109083 -0.00472306 
538 2 29.2247 5.06852 29.3149 0.0357855 -0.0400966 0.0267689 
540 2 28.4798 3.12147 31.5788 0.0738662 0.0166837 -0.0434013 
526 1 28.8349 5.1713 30.5463 -0.038376 0.0162719 -0.0360263 
528 1 28.7111 4.16569 31.5066 0.00388263 -0.0143451 -0.0025212 
535 2 34.1821 5.05325 34.1362 -0.010966 -0.0397366 -0.0578138 
539 2 30.4646 2.88167 32.8928 0.0331968 -0.00795624 -0.0224675 
527 1 30.0966 3.76681 33.3472 0.00881693 0.0149823 -0.000429687 
516 1 29.471 4.77648 32.5455 0.00641062 0.00950298 0.036256 
524 1 31.3624 4.26787 33.8753 0.00243888 -0.00986585 0.0139837 
536 2 32.2395 3.50502 33.7641 0.0712114 -0.000768669 -0.027597 
281 2 15.9691 5.74232 30.9743 0.0997053 0.0559519 -0.044515 
270 1 15.2804 6.79853 33.3515 -0.000129863 0.0155063 0.0237182 
273 1 15.2546 7.28259 34.728 -9.06902e-05 -0.0114534 -0.00747584 
263 1 16.5246 7.93288 35.3578 -0.00730587 0.00947749 -0.017043 
261 1 16.63 6.61593 32.8007 -0.00306025 0.00592571 0.0102885 
269 1 16.9951 6.04293 31.6229 -0.0141155 0.0112526 0.000246831 
257 1 17.8301 7.64383 34.8285 0.0216461 0.000689444 0.0178053 
259 1 19.1889 7.49764 31.2905 0.000172105 0.0244667 0.0384517 
265 1 20.7469 7.26269 31.1342 -0.00294429 0.0102588 -0.0173811 
279 2 22.842 7.86695 30.8867 0.0595323 -0.00778584 0.02247 
267 1 21.9898 7.75971 31.6107 -0.0074036 0.000795809 -0.00162398 
253 1 19.2936 7.41963 32.759 -0.00455132 -0.0207373 0.00859524 
260 1 21.8379 8.29987 32.9054 -0.0228622 0.0102382 0.0158789 
255 1 18.0516 7.29439 33.4402 -0.00972987 0.00395394 0.0067264 
262 1 20.5683 9.6187 35.7095 -0.00348775 -0.022556 -0.0089181 
254 1 20.559 8.17004 33.488 0.0189469 -0.0200063 0.00994724 
258 1 19.0685 7.78663 35.7063 -0.00257993 0.00738538 -0.0133788 
256 1 20.1955 8.40074 34.9283 -0.00906785 -0.00806601 -0.0197882 
271 1 22.0014 10.1976 35.0194 -0.00617137 0.0273873 -0.0182921 
268 1 22.5939 9.44511 33.8182 -0.000143926 0.00870823 -0.00428616 
280 2 23.7165 9.60144 33.8418 -0.0312473 -0.0262506 0.00519991 
283 2 22.7388 10.5819 35.9584 -0.0108707 0.00823768 -0.0538077 
513 1 30.0745 9.22028 31.0296 -0.00265069 0.0034488 -0.00119236 
533 2 31.1936 10.7932 29.8534 0.0501634 0.0294006 0.0126266 
521 1 30.9159 10.4033 30.9245 0.0198163 0.00303702 -0.00265858 
518 1 30.8106 11.386 32.0167 0.0109372 0.0141352 0.00331902 
515 1 29.2639 6.43073 30.7143 -0.0211207 -0.0405545 -0.0362216 
517 1 32.4216 10.8862 33.8146 0.0343244 -0.0138739 -0.0255078 
529 2 32.5121 11.9871 34.2827 -0.000151629 -0.0445512 -0.0287172 
510 1 30.0204 6.13341 32.9936 -0.0220043 -0.0174453 -0.00673452 
506 1 31.3127 8.18793 34.2229 -0.00194039 0.00522066 0.0100414 
520 1 33.793 7.19766 34.488 0.0223601 -0.0071393 0.0053068 
508 1 30.9518 6.71383 33.8788 -0.00752914 0.0197488 0.0147682 
519 1 33.384 9.58264 33.8869 -0.0135903 -0.000529188 -0.00716426 
523 1 33.3985 5.94823 34.296 -0.00931971 0.00853592 0.00656312 
512 1 32.8146 8.31405 34.4278 -0.00353811 -0.0288723 0.013004 
514 1 31.8881 5.64025 34.1681 0.00687868 -0.00916616 0.00126459 
505 1 30.3866 9.01835 33.3998 0.00442168 0.0145986 0.0121477 
97 2 36.2395 -9.85907 29.7077 0.112779 -0.0720539 -0.00764763 
78 1 31.5946 -11.4735 25.5791 0.00642519 -0.00438487 -0.0142781 
142 2 18.6822 -1.49609 35.0418 -0.020498 -0.0388909 0.0605288 
86 1 35.5769 -11.8199 29.1762 -0.010351 0.00761566 0.0161341 
144 2 17.0565 -3.24445 36.3448 -0.0421459 0.0250444 0.061919 
252 2 23.3946 14.9678 -5.83647 -0.000922329 0.0752186 0.0333668 
240 1 23.8384 15.8367 -6.04622 -0.00629367 -0.0179558 0.00167598 
228 1 23.7052 17.1944 -5.03905 0.0260501 -0.0238416 -0.0279824 
250 2 24.8094 16.2333 -8.04306 -0.0175158 -0.0701687 -0.0385105 
238 1 24.659 16.3862 -7.04315 -0.00941066 -0.0169758 0.0454082 
222 1 23.582 18.4663 -5.52203 -0.00126191 0.0160001 0.0128449 
221 1 24.3476 18.9556 -6.82685 0.0136247 5.42715e-05 0.0178311 
217 1 24.5348 20.9443 -5.95947 0.00529061 -0.00836458 -0.00449396 
223 1 25.3406 22.2499 -6.14568 0.00449351 0.00274471 -0.0118557 
227 1 25.1371 17.8861 -7.3216 0.00947298 0.00924343 0.0082836 
219 1 24.8027 20.2373 -7.08445 -0.0151222 -0.0184839 0.00712149 
225 1 25.5673 20.3917 -8.46671 -0.0205091 -0.00277616 0.0193912 
233 1 25.6026 21.867 -8.62496 -0.00279797 0.000373344 0.0134543 
234 1 26.3721 19.3248 -9.05827 0.0119426 -0.00521195 -0.000358569 
237 1 26.3558 18.422 -7.96209 0.0126605 0.0203645 0.0013771 
249 2 27.1646 17.8818 -7.56125 0.0255255 -0.0406003 -0.0681767 
246 2 26.9922 19.3745 -9.74151 -0.0329205 0.00153786 -0.00489455 
245 2 26.2967 21.8926 -9.37703 -0.00233959 -0.0249477 0.085113 
230 1 25.533 22.7913 -7.63841 -0.00123755 -0.0124594 -0.00766649 
242 2 25.935 23.8373 -7.85593 0.0549468 -0.101183 0.00147191 
251 2 23.7338 15.836 -3.6902 0.0117266 0.011514 0.0633129 
239 1 23.3836 16.9638 -3.69756 0.0271885 0.0151341 -0.00796733 
236 1 23.4849 17.7085 -2.45687 0.00171998 0.00441697 0.0258367 
248 2 23.3105 17.2467 -1.59163 0.023457 0.0128578 0.00425923 
220 1 23.3782 19.3813 -4.39876 0.0329093 -0.0133885 -0.000692822 
226 1 23.4954 19.1612 -2.84476 0.0183663 -0.0111052 0.00593422 
218 1 23.4394 20.7221 -5.02325 0.00281664 -0.00998947 0.0237977 
247 2 23.9804 20.2961 -1.06333 -0.00768262 0.0130929 0.090199 
235 1 23.3573 20.2464 -1.8913 -0.00469157 0.0128294 0.0112558 
229 1 24.9532 23.1627 -5.0075 0.0278242 0.0262045 -0.0128285 
244 2 23.8461 22.3818 -2.32216 -0.000571514 -0.0408666 0.0436576 
232 1 23.4561 21.3953 -2.72243 0.0135835 0.00217986 0.00451662 
224 1 23.021 21.9464 -4.14708 0.0179047 0.0183258 -0.0276135 
243 2 22.6363 23.6872 -3.93868 -0.0375946 -0.0586736 0.0515891 
231 1 23.6244 23.2278 -4.43909 0.00890235 -0.00526153 -0.0206811 
241 2 25.5448 23.9931 -5.26562 -0.0429497 0.00890296 0.0210674 
381 1 34.0803 29.7651 8.77727 0.0118932 0.0143004 -0.0295162 
393 2 34.2403 28.7634 8.09964 0.0712545 -0.0796009 -0.012296 
394 2 32.024 27.3604 8.76824 0.0225569 -0.00321809 -0.161183 
371 1 33.1316 29.2267 9.78357 0.0232343 -0.0168743 0.0260583 
382 1 32.7184 27.7732 9.71397 -0.00138877 0.015805 -0.0229339 
365 1 32.6493 30.2467 10.7442 0.0188175 -0.000143612 0.00933331 
384 1 32.8841 27.1652 10.98 0.0195945 0.00838368 -0.00491048 
390 2 35.3397 31.8165 8.29812 0.0840441 0.0192607 -0.0253649 
378 1 34.5183 31.0894 8.78933 0.0118681 0.00170717 0.00451699 
389 2 33.4654 33.9289 8.8477 -0.055115 0.0300569 -0.100265 
369 1 33.8993 32.0783 9.77056 -0.0037653 -0.00654798 0.0110232 
377 1 33.8369 33.6277 9.80638 0.00632346 0.0123112 -0.00849337 
374 1 34.1488 34.3949 11.0389 0.00992167 0.0176571 -0.0182122 
363 1 32.7193 31.7317 10.4047 0.0199928 0.00383606 0.00295016 
361 1 32.3124 32.8524 11.3094 0.0367526 0.0132753 -0.0143744 
396 2 32.721 26.0345 11.3327 -0.0176674 -0.0365053 0.0404617 
366 1 32.2339 29.5427 11.9202 0.000550139 0.0142325 -0.00946778 
386 2 34.9361 35.0496 11.4887 -0.0636128 -0.0260408 0.0617537 
367 1 33.0735 33.9001 11.9161 0.0120865 0.0152136 -0.0152615 
89 1 35.131 34.7785 29.0985 -0.0139748 0.00128992 -0.0194542 
530 2 31.5687 12.2317 31.9708 -0.026445 -0.0131084 0.0175545 
395 2 31.2245 26.387 13.0786 -0.0452174 -0.0220893 -0.0399135 
372 1 32.2465 28.005 12.0555 -0.0106857 0.00441604 -0.0231069 
364 1 31.8369 30.4568 12.8578 -0.0032627 0.012609 -0.00451329 
383 1 31.4574 27.6143 13.2897 -0.00103292 0.00718153 -0.0177346 
380 1 31.0177 28.3978 14.1884 -0.0252481 -0.0069681 -0.0156945 
370 1 31.4495 29.7824 13.9966 -0.00441057 -0.0163364 0.00010704 
379 1 31.1846 30.4274 15.1276 -0.0182784 0.0167386 -0.0281674 
392 2 30.2288 28.4362 15.0963 0.00582098 -0.0686175 -0.0199689 
391 2 31.1922 29.7401 15.9139 0.0808811 -0.0300689 -0.0301405 
362 1 31.5935 32.0285 12.4457 0.0411511 -0.00153301 -0.008875 
101 2 35.5223 34.0978 29.7337 -0.00407605 -0.0484544 -0.116964 
385 2 32.9403 35.3557 13.6829 -0.0344197 -0.00852943 -0.0593193 
81 1 33.8842 34.4075 28.2191 -0.0123932 0.00993155 -0.00684396 
373 1 32.5988 34.4695 13.2122 0.0148663 -0.00147969 -0.010447 
368 1 31.0249 32.493 13.6324 0.0138977 0.0273306 -0.0222506 
375 1 31.6908 33.8108 13.9709 -0.0320779 0.0208355 -0.0193221 
376 1 31.0407 31.7611 14.8592 -0.0024453 0.00581036 0.00978174 
387 2 31.2941 34.5194 14.6739 -0.0690534 -0.0547676 0.0261559 
388 2 30.6935 32.1783 15.8857 -0.0206137 -0.0430178 -0.0296826 
94 1 29.9714 34.0685 26.3995 -0.01389 0.0110353 -0.0132814 
84 1 30.1638 35.9686 25.0402 -0.00847957 0.0459107 0.00819153 
83 1 31.3918 34.167 26.4868 -0.0169817 0.00139742 -0.01192 
108 2 28.7222 35.0025 24.4937 -0.00365977 -0.0586282 -0.00146656 
96 1 29.6142 34.5152 24.9635 0.0289515 0.0282947 -0.0226338 
77 1 32.0527 35.4692 26.3969 -0.0176947 0.00558905 0.015093 
105 2 31.2202 32.1992 26.9146 -0.102522 0.0351737 -0.0432294 
102 2 34.118 32.5212 28.191 0.027532 0.0257747 0.0483636 
106 2 29.793 32.9632 26.7665 -0.0280775 -0.0602171 -0.0411473 
75 1 33.2386 35.3328 27.2844 0.00377476 0.0148817 -0.00288833 
90 1 33.2749 33.1757 27.7362 -0.0022739 -0.00411024 -0.0146378 
93 1 31.9242 33.0037 27.142 0.00298422 0.0195858 -0.0130353 
200 1 43.9219 -11.0321 7.98804 -0.0317872 -0.00115456 -0.00453911 
190 1 45.1689 -10.1832 8.01678 0.0173391 0.0105357 -0.00895865 
211 2 44.9557 -9.25054 6.15787 -0.0256689 -0.0269985 0.0381897 
184 1 46.0139 -10.5399 9.05514 -0.0148336 0.0218811 0.0147842 
186 1 45.6632 -11.7147 9.75518 -0.00281523 -0.000357274 0.010096 
212 2 43.1556 -11.0839 7.36199 -0.0700456 0.00244273 -0.02784 
196 1 47.0907 -8.64352 7.08777 0.0057742 0.0111242 -0.00360766 
199 1 45.6982 -9.36147 7.00335 0.00335402 0.00883805 -0.0210526 
358 2 46.754 -6.7062 10.1062 0.0469718 0.0641285 0.0827712 
346 1 45.8689 -6.32174 10.5348 -0.00803245 -0.0148194 0.000724706 
183 1 47.327 -11.1274 11.2851 0.0218945 0.0291803 -0.0227805 
208 2 47.5492 -7.73368 6.64812 -0.0323297 -0.0309302 -0.0529041 
188 1 47.8387 -9.3166 8.11293 -0.0153599 -0.00564711 -0.0129929 
207 2 49.6771 -9.97648 7.50909 -0.0417967 -0.00731278 0.0132194 
195 1 49.3271 -9.32773 8.33054 -0.00680974 -0.0177371 -0.0172879 
182 1 47.2778 -9.94774 9.20832 -0.048765 -0.010857 0.00221359 
193 1 50.0954 -9.62994 9.54708 0.011989 0.0122351 -0.00932571 
181 1 47.9033 -10.0963 10.4741 -0.0185546 0.000638047 -0.00721906 
348 1 44.6571 -6.8002 10.078 -0.0111706 0.00338382 0.0072628 
356 2 40.3812 -4.59501 10.5447 -0.0703554 -0.101842 0.0401913 
344 1 41.4223 -4.82864 10.9615 -0.0212636 -0.0137923 0.00489615 
336 1 43.5441 -5.93827 10.8094 -0.0137193 0.000899473 0.00665163 
359 2 42.6012 -5.36794 9.08303 -0.0410533 -0.0709224 0.00648701 
360 2 44.1853 -7.5078 9.21714 -0.068554 0.028364 0.0549738 
347 1 42.6138 -5.2176 10.2289 0.023674 -0.0169773 -0.0128303 
192 1 44.2739 -12.148 9.77228 -0.00454151 -0.0493585 -0.0168879 
187 1 49.3201 -9.76871 10.7818 -0.00455259 0.00446853 -0.0196984 
205 2 51.1585 -9.86089 9.61251 -0.0690411 -0.0348842 0.00813055 
327 1 44.4674 -6.27954 14.4135 -0.00878244 0.0248004 0.00961133 
325 1 43.4589 -5.50748 15.2978 0.00411226 -0.00453222 -0.000612938 
331 1 43.3454 -5.85203 16.7627 -6.81666e-05 -0.00440882 0.0232677 
338 1 44.2352 -6.63487 17.247 -0.0258395 0.0162029 -0.00930245 
341 1 45.4182 -7.05737 16.6182 -0.0101741 0.00869069 0.0180952 
350 2 44.5815 -6.93614 18.1801 -0.0915659 0.0423229 0.00537515 
333 1 45.4458 -7.00588 15.172 -0.00427422 0.0125556 0.0045845 
342 1 46.6861 -6.60238 14.3 0.0224378 -0.00962218 -0.0118788 
329 1 44.6873 -6.14679 12.9027 -0.00733356 -0.00920765 -0.00977161 
353 2 46.4563 -7.55486 16.9326 0.00459859 -0.0406215 -0.0349073 
345 1 46.8588 -6.95216 12.8435 -0.0118868 -0.00228466 -0.00900562 
335 1 45.8945 -6.26645 12.0333 0.0158697 0.00642029 0.000817913 
439 1 58.3896 11.105 26.7476 0.0219045 -0.00693082 0.000709525 
189 1 47.8998 -11.3114 12.5562 0.007257 -0.0171314 -0.0274188 
206 2 50.4158 -9.19618 12.4175 0.0720547 1.54191e-05 -0.0375253 
194 1 49.5934 -9.80777 12.245 0.0255985 0.00370307 -0.0170454 
354 2 47.2404 -6.72585 15.1767 0.0248482 -0.0438935 0.0542672 
197 1 48.4775 -10.0085 13.1105 -0.00639851 0.0214766 -0.00924915 
435 1 56.0478 11.7439 27.0575 0.0322529 0.00799404 0.00662512 
209 2 48.5076 -9.94633 14.1658 0.0199527 0.0537512 -0.0762683 
339 1 41.9911 -3.93659 16.5254 -0.00711744 0.00875615 0.0118419 
351 2 41.2319 -3.65692 17.4721 0.0117453 0.0121656 -0.0941256 
355 2 39.2507 -4.43794 12.6809 -0.0236877 0.00370643 -0.00665259 
352 2 39.076 -4.90475 15.0057 0.0733393 0.00438729 0.0562331 
340 1 40.1306 -4.82812 14.5596 0.00643903 0.0298332 -0.00100349 
334 1 41.3036 -4.83106 12.2318 -0.0188397 -0.00928377 0.0258702 
343 1 40.1261 -4.85041 13.0888 -0.00572357 -0.0234105 -0.0346773 
332 1 41.5089 -4.61974 15.2921 0.00495667 -0.00923981 -0.00371135 
337 1 42.7413 -4.71536 17.5195 -0.0496235 0.00608015 -0.0228658 
349 2 42.8969 -4.53149 18.589 0.00712246 -0.00780546 0.0426532 
326 1 42.5182 -4.93718 14.4322 0.00151862 -0.012493 -0.0419027 
328 1 42.5798 -5.10427 13.1542 -0.00638476 0.0244375 0.00347984 
330 1 43.4838 -5.76973 12.2874 0.00238263 0.0237425 0.0132171 
445 1 59.7798 11.6527 26.9007 0.0219209 0.0081927 0.0253715 
465 2 52.6821 10.3235 28.6908 -0.0306141 0.0161258 0.000669911 
453 1 53.2846 10.9571 27.8425 0.00742832 -0.00420826 0.00593397 
450 1 54.395 10.2097 28.0033 0.0157975 0.00379361 0.0185151 
462 2 54.1369 9.41779 28.957 -0.0242382 0.0803775 -0.028606 
461 2 56.5697 8.4969 28.6249 0.0224903 0.0313507 0.0647764 
458 2 58.7918 9.03891 27.6127 0.00572878 -0.0595789 0.0696331 
441 1 55.743 10.4155 27.6132 0.0201102 -0.0130801 0.0192227 
449 1 56.9256 9.53258 27.9166 -0.0042795 -0.0140757 0.0259808 
446 1 58.0641 9.78024 27.2649 0.0116705 0.00853169 0.000838994 
357 2 47.9873 -7.0113 12.705 -0.0671446 -0.0117817 0.0364231 
98 2 36.1541 -11.5722 30.1451 0.0303407 0.0352974 -0.0203393 
493 2 38.8487 18.9815 -6.19169 -0.0608564 -0.0255286 0.0459322 
494 2 40.8279 19.9987 -8.1321 0.028309 0.00582396 0.0335121 
481 1 40.0243 18.5061 -6.10721 0.00977162 -0.00985009 -0.00915278 
475 1 40.9799 18.4922 -7.14993 -0.0219696 -0.00600084 0.0104601 
482 1 41.4848 19.1823 -8.46082 0.00238683 -0.0098621 0.00156386 
497 2 42.864 20.3463 -9.58362 0.0694933 0.0647023 0.0151931 
485 1 42.7892 19.6465 -8.70552 -0.00110187 -0.0302622 -0.00987196 
469 1 42.0939 17.9555 -6.42697 0.000520491 0.0072815 -0.00449843 
471 1 43.5063 18.4602 -6.56694 -0.00686856 -0.0247611 0.0181974 
479 1 45.1026 19.8791 -5.56393 -0.0100685 -0.0367403 0.000608959 
489 1 45.8135 20.1486 -6.91176 -0.00247074 -0.0227661 0.0231518 
477 1 43.7383 19.2008 -7.8056 -1.91122e-05 0.0120843 0.0161225 
501 2 46.7527 20.9819 -6.63595 0.0590554 -0.111823 0.00203571 
486 1 44.9394 20.0718 -8.0392 0.0105799 -0.00457746 -0.0464839 
498 2 45.2659 19.7696 -9.12072 0.000161345 0.0408131 -0.0361249 
473 1 44.0208 18.7493 -5.31418 0.0154619 0.00395085 0.0127655 
495 2 38.3818 17.2807 -4.933 -0.0310034 -0.0727969 -0.00152482 
483 1 39.4514 17.5576 -5.17727 -0.00465435 0.0165031 -0.02693 
496 2 39.5357 15.6542 -3.02438 0.0635345 0.102499 0.0421082 
484 1 40.5378 16.0977 -3.32818 -0.0122431 0.0026094 0.000364287 
476 1 40.6276 16.9766 -4.55038 -0.0146062 -0.0225584 0.0139902 
487 1 41.7885 15.6735 -2.7428 -0.0280265 -0.00815813 0.0479945 
499 2 42.3504 14.6877 -2.77293 0.0168113 -0.000770652 0.0869101 
488 1 43.6579 17.1412 -1.44099 -0.0154439 -0.0181856 -0.0100235 
500 2 43.7838 16.4936 -0.68197 -0.0137779 0.0691813 -0.0705623 
491 1 44.6893 18.4078 -1.79294 -0.017804 -0.00782492 0.0125024 
478 1 43.0035 16.6319 -2.55077 -0.0121241 0.00835799 0.00907 
472 1 43.0493 17.1232 -3.99314 -0.0145259 0.013299 0.00535834 
470 1 41.974 17.3093 -5.11832 -0.00345816 -0.00912754 0.0279601 
490 1 46.2637 20.2666 -4.61784 -0.00198127 0.0226542 0.020089 
502 2 46.6402 21.2417 -4.46774 0.0158637 -0.063082 0.0409684 
503 2 45.2713 19.0923 -1.18931 -0.00688738 0.00380088 -0.0440043 
474 1 44.0211 18.1238 -4.0772 -0.00600404 0.0202998 0.021773 
480 1 44.7978 18.9217 -3.00937 -0.0198958 -0.0131729 -0.0169856 
492 1 46.0822 19.4738 -3.38766 -0.00116412 0.0187852 -0.0016878 
504 2 46.4317 19.9881 -2.4762 0.00545252 -0.0446581 -0.0169028 
216 2 42.8834 34.9953 10.5192 0.00224888 -0.0779046 0.0357639 
204 1 43.7013 35.2926 10.9496 -0.00220984 0.00785739 -0.007853 
202 1 44.3844 34.3876 11.8328 -0.00163819 0.0031034 0.0034432 
215 2 42.7107 35.3608 7.99326 -0.062695 0.00982671 0.00362698 
185 1 46.3013 35.921 11.0096 -0.0110692 0.020424 0.0146401 
203 1 43.5441 35.767 8.57976 -0.0108803 0.0229417 0.000431272 
213 2 45.767 34.673 14.2833 0.0084683 0.0604955 -0.091777 
214 2 44.0283 33.7146 12.4983 -0.0258997 0.0531819 0.0573961 
201 1 46.3143 35.0756 13.2655 -0.0138904 -0.0135163 -0.0237484 
448 1 58.9385 15.5426 26.6704 -0.00258139 0.0049104 -0.00535217 
191 1 45.5678 35.029 11.9859 0.0218626 0.00932508 -0.00355242 
198 1 47.4791 35.8344 13.5676 -0.0351535 0.00803673 0.0108041 
440 1 58.8809 14.0165 26.5831 -0.0218124 -0.00967248 -0.0197049 
468 2 51.8595 14.4855 26.3002 -0.035356 -0.00589241 -0.0382421 
456 1 52.8606 14.1094 26.4045 0.00327144 -0.00650131 -0.0169854 
466 2 51.398 12.2501 27.4615 -0.0996048 -0.00730339 0.0346838 
443 1 53.6028 12.2772 27.6449 -0.00646715 0.0134263 -0.0170865 
454 1 52.4087 12.729 26.9325 0.013553 -0.0176261 -0.0177734 
467 2 53.7963 17.0078 25.9201 0.0118016 -0.120267 0.0178385 
438 1 55.1821 14.0755 26.6039 -0.0042616 -0.0043943 0.0123381 
455 1 54.5068 16.3172 26.2467 0.000116243 0.00398178 -0.0108989 
464 2 55.5004 17.8256 27.339 -0.0754004 -0.0312107 -0.0972961 
444 1 54.1319 14.95 26.4594 0.0153441 0.000150954 -0.00525185 
452 1 55.4414 16.7557 27.2938 -0.00329211 0.0078459 0.00938366 
451 1 57.7833 16.4617 26.7623 -0.0184916 -0.0137965 0.00513623 
463 2 58.4092 17.5754 26.8131 0.0660118 0.0381307 0.0190739 
436 1 56.3225 14.3969 27.0017 0.019536 -0.0194344 0.00436336 
442 1 56.446 15.8795 26.9877 -0.00680775 0.0138083 -5.65639e-05 
434 1 57.5479 13.6151 26.936 0.0190086 -0.00467644 -0.00670552 
437 1 54.8083 12.6775 27.0282 -0.00109327 0.00477149 0.0186102 
433 1 57.5042 12.0681 26.9492 0.0108342 0.00421118 0.0265224 
460 2 60.1404 15.7237 26.5243 -0.0302047 0.0365887 -0.00453238 
210 2 47.9693 35.5384 14.644 -0.0490628 -0.0362161 -0.0173348 
313 2 83.4414 11.1251 33.2142 0.115103 -0.0338494 0.0164257 
457 2 60.5498 11.0256 27.5396 0.0253235 0.0281716 -0.0069194 
430 2 69.8088 25.3841 19.6152 -0.048861 0.0559452 0.0124671 
429 2 70.1449 26.8417 17.906 0.0537903 -0.065228 0.0778722 