ITEM: TIMESTEP
290000
ITEM: NUMBER OF ATOMS
576
ITEM: BOX BOUNDS pp pp pp
-1.2000000000000000e+01 8.4000000000000000e+01
-1.2000000000000000e+01 3.6000000000000000e+01
-1.2000000000000000e+01 3.6000000000000000e+01
ITEM: ATOMS id type x y z vx vy vz 
200 1 1.15693 -1.77732 11.3444 -0.0130795 0.0134672 -0.0115772 
385 2 -5.10244 9.50461 -11.5259 0.0198639 0.0709875 0.0949685 
211 2 -0.477089 -2.83696 9.79801 0.0359763 -0.0300393 -0.00230519 
188 1 -2.97771 -0.747719 10.8303 0.0367057 0.00508363 0.0321801 
199 1 -0.687072 -1.80951 10.0401 -0.0109275 0.0098152 0.0299795 
196 1 -2.00124 -1.27723 9.85985 -0.0206909 0.0192072 0.00774384 
208 2 -2.29618 -1.61358 8.90189 -0.0483707 0.0284291 -0.00853585 
190 1 -0.360646 -1.35295 11.3703 0.00600771 -0.0258891 -0.035065 
212 2 1.81047 -2.45086 10.6301 0.01877 -0.0183543 0.000313347 
205 2 -6.15287 0.320082 11.1533 0.00216131 -0.137873 -0.0022067 
193 1 -5.16311 0.0212335 11.5198 -0.0165295 0.00660708 0.00260171 
207 2 -4.97729 -0.565386 9.50657 0.0269852 -0.00514536 -0.0952183 
195 1 -4.50326 -0.802966 10.5563 0.0293657 0.0104049 0.000526676 
182 1 -2.42129 -0.332324 11.9909 -0.0210462 0.00830624 0.0123008 
386 2 -4.80788 11.5204 -10.9173 0.0379721 -0.0289796 -0.0217504 
366 1 -4.20203 11.6855 30.9568 0.018486 -0.0136368 -0.0212679 
184 1 -1.10147 -0.868953 12.4336 0.00835072 0.0183529 -0.00615041 
186 1 -0.616749 -0.334574 13.5867 0.00497226 0.0111327 -0.0036325 
185 1 -1.48932 -0.26548 14.7679 -0.0213679 0.0160057 -0.0423456 
191 1 -0.976881 -0.308993 16.0645 0.0210334 -0.00490519 0.000858757 
181 1 -3.04787 0.0418965 13.1122 -0.00221713 -0.000377524 -0.00967038 
202 1 0.337816 -0.610527 16.5668 -0.00842988 -0.00246351 0.0252464 
192 1 0.593356 -1.05348 13.9586 -0.0260706 -0.00104831 -0.00745565 
215 2 2.52249 -1.35405 12.8818 -0.019779 0.131447 0.0407355 
367 1 -5.35189 11.1557 35.1122 0.0235381 0.0204061 -0.0110171 
203 1 1.47141 -1.4695 12.7164 0.010348 0.0174188 -0.0159451 
204 1 1.02314 -0.48527 15.2602 0.0114007 0.0179708 0.00207714 
183 1 -2.58419 0.616613 14.3465 -0.0139915 -0.00935495 -0.0185343 
201 1 -1.47173 0.617655 17.1268 -0.00247222 0.00598383 -0.00110657 
187 1 -4.30857 0.412821 12.694 -0.0138113 -0.0262956 0.00927048 
189 1 -3.31198 0.705467 15.4038 0.00574528 -0.00531779 -0.0141277 
194 1 -5.26004 0.604466 13.8747 -0.0114038 -0.0118227 -0.0110372 
197 1 -4.6657 0.427006 15.038 -0.00704972 0.00637078 -0.0113889 
206 2 -6.39721 0.663797 13.7663 0.00157451 -0.00232971 -0.0204578 
209 2 -5.36339 0.0563625 16.1386 0.0581936 -0.0922372 -0.146521 
198 1 -2.80475 1.11419 16.8508 0.0324894 -0.000947561 0.00824202 
210 2 -3.89836 0.829794 17.1846 0.0258431 0.009861 0.0392006 
214 2 0.667804 -1.12515 17.4945 0.00833053 0.0457137 -0.0163126 
213 2 -1.13116 0.498625 18.0105 0.0726036 -0.0355015 0.0712538 
470 1 -5.74041 11.4213 22.3867 -0.0110522 -0.0127205 -0.0214776 
361 1 -5.0645 11.121 33.5842 0.0188311 -0.04277 -0.0192222 
474 1 -3.18577 11.4945 22.0465 0.0235894 -0.00406976 0.00460672 
286 2 -10.946 -8.36601 25.141 -0.13166 0.0374144 -0.0454209 
274 1 -11.9643 -8.40918 25.5342 0.00175201 0.00621162 -0.00842024 
285 2 -11.4417 -5.47262 26.4722 0.0453454 -0.0310805 0.0402071 
392 2 -5.1508 9.77823 28.0383 -0.0136674 -0.0303072 0.0324845 
484 1 -6.76301 9.43144 23.95 0.027011 0.00184861 0.012488 
483 1 -7.99992 11.2836 23.5278 -0.0171523 5.92523e-05 -0.0437814 
476 1 -6.81469 10.8482 23.4306 0.0027878 -0.00167898 0.000460274 
496 2 -7.64976 8.91967 24.8462 0.0142268 0.0274733 -0.014983 
499 2 -5.33755 8.22204 24.3605 0.0163235 0.0130603 0.0335984 
487 1 -5.31252 9.2808 24.2928 -0.00919512 0.0144826 -0.0306869 
472 1 -4.45974 11.1174 22.7973 0.0110064 0.0207936 0.00417028 
478 1 -4.35778 10.3789 24.0315 0.00677573 -0.0290751 0.00190722 
500 2 -1.30532 8.21102 24.2118 0.0161079 0.125814 0.0616282 
480 1 -2.00514 11.0456 22.4506 0.0163552 -0.000338136 0.00314032 
488 1 -1.47066 8.6259 23.1523 -0.018442 0.0125356 -0.0617221 
491 1 -1.64343 9.52196 22.7249 0.0212017 -0.00361389 -0.0178295 
503 2 -4.03339 10.0891 25.1844 -0.0190976 0.0669289 0.0115927 
376 1 -7.13103 8.71636 31.8663 -0.00867875 -0.0154208 -0.00671787 
370 1 -5.92957 10.2919 30.1185 0.0180094 0.0117086 -0.0160142 
388 2 -7.81857 7.92614 32.1968 0.00589292 -0.046957 -0.0308542 
375 1 -6.14895 8.84601 34.2904 0.0107033 0.0204913 -0.00842396 
387 2 -6.38681 7.75975 34.244 -0.0168849 0.00961991 0.0270297 
379 1 -7.13806 9.33458 30.59 -0.00148809 -0.00446151 -0.0082109 
391 2 -7.59481 8.56668 29.7465 -0.00473058 0.120694 0.0129373 
368 1 -6.56138 9.42108 32.9776 -0.0269221 -0.00488932 -0.0321378 
380 1 -5.3396 10.5505 28.7872 0.00643771 -0.0446807 0.0048874 
364 1 -5.43128 10.907 31.2415 -0.0257437 0.000879786 -0.0274795 
362 1 -5.72713 10.6279 32.465 0.036662 0.00834905 -0.0179185 
504 2 0.0911585 11.4721 23.7848 0.0763772 0.0471085 -0.0351393 
373 1 -5.45043 9.68623 35.2683 0.00185071 -0.0130174 -0.0110188 
288 2 -11.4331 -10.5446 25.876 -0.0303158 0.0670443 -0.034838 
492 1 -0.87819 11.6598 23.0373 0.0280416 0.0146226 -0.00778413 
383 1 -4.48268 11.4347 28.5558 -0.00744825 -0.0146689 -0.0299812 
395 2 -4.04905 11.4877 27.2939 -0.0241236 -0.000590505 -0.0776468 
389 2 -3.95359 14.3003 -12.0108 0.0381915 -0.0154923 -0.0373802 
374 1 -4.82199 12.0982 -11.954 0.0217005 0.00775405 -0.03128 
497 2 -6.79335 16.1883 20.9074 0.00256918 0.00336178 -0.0314877 
477 1 -5.43763 14.8599 21.1227 0.00620018 0.0245491 -0.0177976 
482 1 -7.85943 14.3036 21.2927 0.0068277 0.0128984 -0.0114226 
485 1 -6.74935 15.1366 21.0172 0.0195697 0.0031752 -0.0180555 
475 1 -7.62197 13.1712 22.2201 0.0103776 0.0128037 0.00818114 
469 1 -5.94503 12.8018 21.9832 -0.021898 -5.03096e-05 -0.00832135 
489 1 -3.75772 16.8596 20.6096 0.0109598 -0.0130716 0.0204006 
486 1 -4.15271 15.9329 20.9582 0.0012808 0.00366691 -0.0166016 
498 2 -2.73717 17.3547 21.0693 -0.0169392 -0.0544535 0.110292 
490 1 -1.02927 12.9795 22.3552 0.0163745 -0.0123743 0.005093 
502 2 -0.147048 13.3416 21.8846 0.08243 0.0363731 -0.094255 
501 2 -2.2207 14.5746 21.3486 0.0753865 0.00777525 0.0163691 
479 1 -2.31187 13.7016 22.0708 -0.00508387 -0.0364855 -0.0131959 
473 1 -3.51411 13.0276 21.8219 0.0202059 -0.00166653 0.00450213 
471 1 -4.83187 13.7401 21.7143 0.00735411 0.0115613 -0.0262854 
495 2 -3.2128 15.6383 34.0287 0.00847707 -0.0362099 0.0374771 
494 2 -8.68846 15.0072 20.7983 -0.0150029 -0.00382963 -0.0770425 
493 2 -9.46656 12.8608 22.6569 0.000359786 -0.0635445 0.00946102 
481 1 -8.4541 12.4858 23.122 -0.0117433 0.0256278 -0.0218802 
393 2 -2.3244 15.1988 31.9062 0.00697948 0.0669937 -0.0831894 
396 2 -2.42925 13.0338 28.2659 0.0782026 0.0295599 0.0201987 
378 1 -3.04706 14.5482 33.857 0.00621354 -0.0193391 0.00558325 
369 1 -3.8375 13.261 34.2683 -0.000932468 -0.0118428 0.0208071 
381 1 -2.49627 14.4526 32.6128 0.00372657 -0.0100595 -0.00734672 
363 1 -4.32914 12.3026 33.1864 -0.00940492 -0.00477179 -0.025007 
371 1 -2.24497 13.02 32.0701 -0.0254814 0.0240228 -0.0143896 
365 1 -3.53817 12.1963 31.9954 0.00268645 -0.0151937 -0.0155307 
390 2 -1.4525 14.2291 30.539 0.0668007 0.0435488 0.0295823 
377 1 -4.28867 13.3909 35.6209 0.00957536 -0.014311 -0.0129823 
384 1 -2.52313 12.9679 29.3065 0.00128449 -0.0235186 -0.00789202 
382 1 -1.88553 13.2557 30.6252 0.00973183 -0.00669107 -0.0109892 
372 1 -3.59425 12.0668 29.5952 0.0282422 0.00774323 0.0122445 
394 2 -1.39473 12.7643 32.6597 -0.0612629 0.0975485 0.0374505 
177 2 33.8372 -4.82022 -7.34202 0.0664611 0.0270688 -0.0427281 
540 2 26.2171 -4.87306 1.78765 0.0534546 -0.033851 0.118523 
537 2 25.7202 -4.72025 1.70451 -0.0263955 0.038779 -0.072465 
413 1 28.8722 11.6051 8.62195 -0.013739 -0.024184 0.00780526 
414 1 26.8734 11.3295 10.3573 0.00792109 0.0195931 -0.00158993 
426 2 25.1201 10.4325 10.884 0.0971421 -0.0494832 0.0862474 
417 1 25.7217 11.0864 10.2662 -0.0233769 0.000328854 0.0156083 
425 2 29.5114 10.6733 8.84036 0.0537652 -0.0952089 -0.0946371 
549 1 22.8451 -5.04288 22.1414 -0.00391626 0.0210238 -0.00512095 
570 2 21.4451 -5.20165 20.4219 0.0738456 -0.0193765 0.0520629 
558 1 22.5065 -5.01653 20.5069 -0.0230646 0.032235 -0.00844974 
561 1 23.3966 -5.30094 19.4868 -0.0122317 0.0262668 0.0309965 
573 2 23.3922 -5.75682 18.2911 0.0332864 -0.0159409 -0.100665 
574 2 25.1829 -6.0846 18.0815 0.00402599 0.0267156 -0.066458 
542 1 26.0359 -5.10392 24.4093 0.0099216 0.0203757 0.00269778 
544 1 26.7886 -5.90255 23.3755 0.0110003 0.0246479 -0.00989336 
576 2 27.9913 -5.93413 18.7989 0.081026 0.0835237 0.041385 
563 1 28.761 -6.44544 21.1835 -0.0078642 -0.011605 0.00218535 
552 1 27.4301 -5.83417 20.8585 0.0158266 0.0167003 0.0195669 
564 1 27.1263 -6.07255 19.4913 -0.00324849 -0.0148476 -0.00486917 
546 1 26.7563 -5.84274 21.9536 -0.00299162 0.0214759 -0.00656606 
545 1 25.2142 -5.85882 21.4233 -0.011597 -0.00826861 -0.00972465 
543 1 24.3298 -5.40284 22.4597 -0.0115061 -0.0279523 0.0050422 
562 1 25.8698 -5.8412 19.0954 0.000317898 0.023884 0.0275782 
551 1 24.8398 -5.68425 19.9531 0.0334079 0.0151121 0.003249 
550 1 28.1988 -6.04804 23.808 -0.0134613 -0.00870346 -0.00197613 
566 2 21.6191 -4.85498 25.2556 0.0394373 -0.0523698 -0.0448286 
554 1 22.4543 -4.32815 24.6606 0.0142201 0.00294628 0.024033 
557 1 22.1877 -4.32227 23.2988 -0.0119599 0.012482 0.0318792 
569 2 21.2395 -3.72692 23.3922 -0.01072 -0.031913 -0.114329 
541 1 24.7271 -5.26813 23.9168 -0.00508307 0.0329088 0.0046751 
560 1 28.8829 -6.417 22.5318 -0.00242165 -0.0051878 0.0101517 
575 2 29.7807 -6.67742 20.6763 0.0403068 -0.00954037 -0.115867 
572 2 30.0648 -6.54673 22.4864 -0.0901719 -0.0654655 -0.0613641 
571 2 29.8716 -6.13732 25.5649 -0.0598592 0.0619079 -0.0224009 
568 2 28.1409 -5.62564 26.963 -0.00201135 -0.0311411 0.0162457 
547 1 23.8924 -4.57174 24.9887 0.00787649 0.00519025 0.0313223 
565 2 23.2644 -5.12896 27.2744 0.00407755 0.0644704 0.0762889 
553 1 23.9156 -4.72522 26.4775 0.00484582 0.00581265 0.0161532 
555 1 25.2894 -5.23681 26.9052 -0.0119247 0.0104291 0.00365342 
548 1 26.3167 -5.44705 25.9212 0.0223894 -0.0214295 -0.0194454 
559 1 28.7138 -5.88479 25.11 -0.0160976 0.0038529 0.0108317 
567 2 25.6641 -5.01624 27.9553 0.0791931 -0.0875277 -0.050127 
556 1 27.7348 -5.9853 26.1431 0.0135856 0.0004525 0.0047467 
231 1 33.8212 6.24304 29.5604 -0.00626551 0.0106551 -0.00674645 
243 2 33.5808 6.04617 28.535 -0.0404159 0.0286984 0.000151252 
224 1 35.2885 6.03657 29.7898 0.0115929 -0.00856082 -0.0093405 
179 2 23.7534 -3.21553 33.613 0.0737952 0.00321535 -0.0077901 
241 2 32.0508 5.7748 30.1876 -0.111646 -0.0268771 -0.0818983 
229 1 32.7513 6.80301 30.2155 0.000118277 0.00281719 -0.00330812 
217 1 34.7404 7.78156 31.4716 -0.00750096 -0.00651855 0.016077 
242 2 31.4767 7.53541 32.1362 -0.0542287 0.0362397 -0.0803519 
234 1 34.4913 10.8861 33.5017 0.0237606 -0.00360871 -0.0138357 
223 1 33.2321 7.53085 31.4576 0.00513209 -0.0167585 -0.0165904 
225 1 33.9712 9.427 33.3083 -0.0103224 -0.00884796 -0.0148823 
230 1 32.3847 7.56287 32.5534 -0.0193862 -0.0112919 0.00673397 
233 1 32.5668 8.90888 33.2558 -0.0108523 0.00870433 -0.0097328 
245 2 31.9355 9.32303 34.1318 0.00316828 -0.0811425 0.0688152 
237 1 35.9794 10.8886 33.6679 0.000253758 0.00901628 0.0184993 
246 2 33.686 11.0396 34.2749 0.0273272 -0.0225997 0.0401069 
219 1 35.2693 8.67477 32.6376 0.0256374 -0.0196029 -0.00387965 
218 1 35.7541 6.8181 31.0374 -0.00057187 -0.00273528 0.0205458 
249 2 36.1664 11.5694 34.5302 0.101419 0.0410994 -0.0436326 
427 2 24.552 17.6361 5.16028 0.0212573 -0.0157436 -0.125561 
411 1 28.1926 14.5838 4.88825 -0.00363314 -0.00412907 0.00881889 
421 2 30.0171 13.6259 5.31127 -0.0241402 -0.00262529 0.00747832 
409 1 29.115 14.0012 5.76317 -0.00538332 -0.0306969 0.0301928 
404 1 26.9258 14.9143 5.36232 0.0153863 0.00940016 0.0390933 
423 2 27.8818 14.3872 3.81761 0.00853978 -0.0110046 0.038694 
412 1 26.1723 16.1469 5.00138 -0.00370171 -0.0373611 0.00649523 
424 2 26.6603 16.2964 4.04045 0.00542614 -0.00281366 0.109226 
415 1 25.311 16.9603 5.59672 0.0484986 -0.0385145 0.0123601 
420 1 23.1995 15.4713 10.5547 -0.00500018 0.0146512 0.0235241 
419 1 24.4362 17.0172 9.23512 -0.0176606 -0.00930578 0.00367129 
418 1 22.5708 15.1892 11.6519 -9.45681e-05 0.0181528 -0.00962211 
405 1 27.8088 12.0813 9.70581 0.0040233 0.0140738 -0.00199173 
403 1 28.721 13.5383 7.08375 0.0112342 0.00521866 -0.00590462 
410 1 29.1574 12.2107 7.37392 -0.0181679 0.0244741 -0.00380764 
416 1 24.1694 17.148 7.68176 -0.00620876 0.0472353 -0.0184816 
431 2 25.6158 17.3461 9.52503 -0.0291467 -0.016871 0.0165427 
397 1 27.4121 13.8725 7.78797 0.0104164 0.00117308 -0.00640319 
398 1 26.4096 14.5332 6.77828 -0.013796 0.00678246 0.00280823 
399 1 27.1237 12.8877 8.81549 0.00115706 -0.00436609 -0.0164051 
429 2 23.8146 12.3145 9.73907 0.0516336 -0.00383495 0.00735485 
401 1 25.7414 13.4433 9.39615 0.0174395 0.00313162 0.00306603 
402 1 25.0798 14.6725 8.89423 -0.00999245 -0.00693401 -0.0240176 
400 1 25.5723 15.1792 7.64102 -0.00762519 -0.0140732 0.00975642 
408 1 24.1262 15.4433 9.55441 -0.012386 -0.0235889 -0.00157021 
406 1 25.2577 16.5514 7.04342 0.00976287 -0.00211218 0.0104223 
407 1 24.9772 12.4637 9.79083 -0.0328714 0.00974179 -0.0264133 
422 2 29.963 12.2704 6.63165 0.0489503 -0.0467207 0.0609028 
71 2 31.8289 34.4734 -8.96316 0.0479747 0.0252002 0.0789046 
428 2 23.4752 17.9055 7.40345 -0.0759478 0.0594627 0.0568623 
180 2 34.0765 18.7158 20.3351 -0.0556296 -0.0248433 -0.0385143 
175 2 33.216 17.9343 15.5227 -0.08061 -0.0551815 -0.042529 
163 1 34.2009 17.8028 16.0255 0.00705033 0.0211183 -4.62364e-05 
160 1 34.8223 16.4313 16.0628 -0.012645 0.00569877 -0.0316664 
172 2 34.1267 15.5134 16.1559 -0.146406 0.0686353 -0.0352048 
154 1 35.0462 18.253 17.1716 -0.00777817 -0.014466 0.0304425 
164 1 34.1997 19.626 17.2644 -0.0257929 0.00983459 0.0009587 
167 1 34.5578 20.4765 18.3886 -0.00968401 -0.018967 -0.00584123 
176 2 34.7067 21.6068 18.29 -0.0274726 0.0295965 0.0557489 
156 1 35.6886 19.6789 19.2324 0.000333467 0.0211303 -0.0242331 
432 2 23.0539 14.373 12.1394 0.0324003 -0.0552275 -0.0702973 
168 1 35.1269 18.8043 20.0734 0.00955928 -0.000883195 0.00439605 
178 2 35.8227 18.2162 22.1222 -0.0234206 -0.0476679 -0.130267 
430 2 21.7061 15.7091 12.2023 0.0642323 0.0213014 -0.00247161 
318 2 50.7302 -7.0049 -7.67327 -0.010771 0.0712031 -0.0617125 
322 2 55.4706 -4.85555 -9.50289 -0.0102895 -0.0535984 0.0692692 
324 2 56.6323 -5.37309 -11.4767 0.00253132 -0.0121712 -0.00340275 
317 2 48.1067 -5.39614 -8.23488 -0.0608059 -0.000731948 -0.026049 
314 2 47.3789 -4.46032 -10.2876 -0.00976682 -0.0170035 -0.0377012 
321 2 53.1767 -7.50158 -8.21611 0.0669366 0.0537903 -0.03468 
302 1 48.4385 -4.96273 -10.2149 0.00741598 -0.00803988 0.0169132 
305 1 49.0594 -5.4879 -9.10455 0.0183563 0.00429994 0.0175056 
293 1 52.4444 -5.49712 -10.8691 0.0194764 0.0077738 -0.00596858 
299 1 53.5126 -6.14357 -9.96848 0.0258542 -0.0252578 0.0137953 
309 1 52.5923 -6.71113 -8.74618 -0.0225297 -0.00844428 -0.0209312 
306 1 51.2665 -6.31466 -8.53039 0.0225933 -0.00475619 0.00501989 
297 1 50.5126 -5.3415 -9.10576 -0.0283409 -0.0186028 0.0212492 
291 1 51.2571 -5.05282 -10.5115 -0.00683905 0.0188075 -0.00994051 
310 1 54.8838 -5.99861 -10.1851 0.012028 -0.00842215 0.00220298 
312 1 55.6874 -5.58777 -11.2527 -0.0120794 -0.0133854 0.0234224 
295 1 49.0598 -3.9721 -11.3571 0.0242934 -0.0277603 0.0219392 
289 1 50.4366 -4.08613 -11.2827 -0.00857624 0.0185558 0.00885244 
294 1 53.2064 -4.79069 -11.8497 0.014555 -0.00767131 -0.00517414 
227 1 37.1108 10.3953 33.1041 0.00439413 0.00215584 -0.0123917 
228 1 38.558 9.13665 31.5661 -0.0166281 -0.00884855 0.00573994 
464 2 59.6063 2.36859 13.778 -0.042153 0.0528072 0.0171295 
251 2 40.4275 9.1415 31.0731 0.0119999 -0.0201788 0.0168786 
358 2 50.4345 1.57384 21.0969 -0.117433 0.123228 0.0176127 
346 1 50.1917 1.25063 21.9851 -0.0194655 -0.0483059 0.00122124 
335 1 49.4574 2.39711 22.5531 0.0031901 -0.00366497 0.002018 
360 2 51.9975 -0.284555 22.6112 -0.0415468 -0.0593853 0.0587936 
345 1 48.3804 2.83971 21.7307 -0.00118786 0.0158113 -0.00475727 
357 2 48.2868 2.61892 20.7838 -0.0493201 -0.0748701 -0.0788808 
348 1 50.9503 0.150961 22.6155 -0.000432745 -0.0100285 0.00352109 
62 2 53.8513 5.6457 21.3056 -0.0156009 -0.00213565 0.0671984 
342 1 48.2747 4.10417 22.3827 -0.00780185 -0.0140737 0.00759255 
354 2 48.122 5.05246 21.6688 -0.0349129 0.0679084 -0.0275793 
333 1 47.998 4.35275 23.7726 -0.0212799 0.0169724 -0.00677568 
47 1 59.4161 3.98951 21.6432 0.0231353 -0.0529928 -0.00756597 
39 1 57.1793 3.88576 22.4551 0.0227272 0.00921427 0.0206513 
41 1 58.5369 3.96391 22.9223 -0.0017393 -0.00202845 0.00994301 
37 1 56.2637 4.46185 23.5294 -0.0218687 0.0159845 0.0169633 
43 1 55.5414 5.45919 22.7887 -0.00286699 0.0130514 -0.0401113 
50 1 54.9915 5.01878 21.3602 -0.0156105 -0.0103406 -0.00487707 
54 1 57.6863 3.01086 20.3346 0.031261 -0.0269323 0.00332567 
45 1 56.7702 3.3662 21.2384 0.0137021 -0.0181427 -0.014913 
57 1 59.1182 3.32417 20.4656 0.0119044 0.0186315 0.0138429 
66 2 57.3508 2.88105 19.3881 -0.0143101 0.0182683 -0.0193987 
65 2 55.2491 3.78982 19.7429 -0.0735774 -0.00195627 -0.061138 
53 1 55.6431 4.00237 20.7212 -0.00882191 0.0220992 -0.0177055 
42 1 59.2361 4.53787 24.0523 -0.0284537 -0.0105522 -0.00828732 
353 2 48.0262 6.36729 23.0085 0.0511155 0.0360012 0.0472071 
105 2 37.4973 -4.37077 27.4288 0.00807239 -0.0283852 0.00443077 
356 2 50.6779 -0.943581 27.5107 -0.0119267 -0.0639471 -0.0677868 
359 2 50.9385 -1.7753 24.7918 -0.00437725 0.0936836 -0.0223347 
344 1 50.6014 -0.457494 26.6611 -0.0113802 -0.00362765 0.00755704 
59 1 59.1327 1.11294 27.2052 -0.0328979 0.0274183 0.0010189 
232 1 36.3542 5.4777 29.035 -0.0388503 0.0132259 0.0202739 
334 1 50.5906 0.931871 26.9352 -0.00635328 0.0073816 -0.0232605 
330 1 49.9515 1.41281 24.6509 -0.0349864 0.00877606 0.00117183 
328 1 50.3039 1.93134 26.0705 -0.00459728 -0.00583857 0.0219269 
347 1 50.4594 -0.7756 25.1876 -0.0190823 0.0193312 0.00518866 
336 1 50.2417 0.186644 23.9927 0.0366492 -0.0243101 -0.0317024 
329 1 49.4847 2.49192 23.7958 -0.00179166 0.00354051 0.011214 
343 1 50.6623 0.910999 28.5689 0.00931642 0.020525 -0.0282759 
326 1 49.8101 3.04877 26.6539 0.0216204 -0.0108778 -0.024872 
332 1 49.3209 3.0698 28.0702 -0.0114568 -0.0118119 0.00312401 
327 1 48.9364 3.53732 24.4191 0.0091107 -0.0388 -0.0328402 
355 2 50.9492 0.229481 29.3132 -0.110297 0.0473891 0.0632226 
325 1 49.0662 3.86171 25.7004 0.00300954 -0.0037471 -0.0104842 
339 1 49.4757 4.41553 28.7681 -0.0132938 -0.00525069 0.02529 
340 1 50.2953 2.35345 28.7887 0.00121811 -0.0102829 0.00696365 
351 2 49.7071 4.40844 29.8268 -0.0569774 0.0265354 -0.0115051 
61 2 54.0107 6.90428 23.0001 -0.0562075 0.0169351 0.0807345 
331 1 49.0677 5.15996 26.4071 -0.0122446 0.0191489 -0.0180612 
46 1 58.2401 3.36529 26.4066 -0.0248092 0.0145775 0.00293094 
64 2 56.5432 6.50662 27.6092 -0.003861 -0.0362381 0.0513562 
51 1 55.4597 6.6757 24.8286 0.0116037 0.00505933 -0.00236193 
49 1 54.7772 6.29112 23.6157 0.00120253 -0.00698974 -0.00249131 
44 1 56.0524 5.63499 25.5948 -0.0295987 0.00275831 0.00469286 
38 1 56.9868 4.86612 24.7068 0.0319029 0.0232188 0.0236646 
52 1 56.667 5.56452 26.8992 -0.0094748 -0.0156376 0.00463545 
40 1 58.3611 4.22926 25.0936 0.00375448 -0.00300396 0.00964632 
55 1 57.3849 4.20197 27.3925 -0.00248969 0.00548232 -0.00137897 
240 1 39.2891 10.1247 32.5762 0.008524 -0.0127632 -0.0252829 
248 2 39.829 6.6723 29.4443 0.0363735 -0.0348388 0.0594226 
247 2 38.236 5.21159 28.4703 -0.178926 0.110079 -0.106951 
235 1 37.6207 5.85188 29.0977 0.000724529 -0.0061986 -0.0044104 
349 2 49.0911 6.28206 28.2411 -0.0129795 0.0346108 -0.0989943 
341 1 48.0042 5.80369 24.015 -0.00187229 -0.0263373 0.00685437 
338 1 48.2953 5.87847 25.3639 -0.0203557 -0.0248355 0.0115747 
337 1 48.9229 5.34489 27.8859 0.000738596 -0.0242057 0.031376 
350 2 48.418 6.96803 25.6316 -0.0480458 -0.0204374 -0.0536754 
63 2 56.1611 7.61777 24.5945 -0.0328988 -0.0587825 0.00137983 
323 2 56.1957 -5.46447 34.3726 -0.00502937 0.0361917 -0.120814 
313 2 47.1994 -2.9748 35.5353 -0.0383649 -0.0475307 -0.0368917 
250 2 38.2712 11.5556 34.4134 0.0462522 -0.0217158 -0.0510399 
304 1 50.8844 -2.53514 33.3701 -0.0177821 0.0261146 -0.0168398 
316 2 50.0455 -1.75501 33.2591 0.0216652 -0.11355 0.0517272 
307 1 52.2274 -2.86314 32.7255 -0.0406806 -0.00447311 0.000452072 
298 1 53.0579 -3.6848 33.669 0.0253493 -0.0142468 0.00295508 
292 1 52.5421 -4.35439 34.9832 0.00651083 0.00866694 -0.00572152 
315 2 48.5471 -2.68734 33.5013 -0.0604561 -0.0651037 -0.0519568 
296 1 50.3851 -3.33982 34.3478 -0.015039 0.0163357 0.0141114 
290 1 51.2001 -3.92121 35.4002 -0.0105751 0.0149588 -0.00684703 
303 1 48.8307 -3.18412 34.4805 -0.0229458 -0.00540677 0.014371 
301 1 48.2155 -3.56416 35.6069 0.0241119 0.0132725 0.0120623 
226 1 38.004 6.89546 30.026 -0.0258028 0.0124035 -0.00836988 
463 2 59.4589 4.14793 14.8272 0.112324 -0.0314975 -0.0827483 
319 2 53.1617 -2.65031 32.1876 -0.00842489 0.0548753 0.0878126 
300 1 54.5436 -5.27041 35.7621 0.00767551 0.0078841 -0.0175769 
311 1 55.0694 -5.36116 34.3785 -0.00244939 0.0106722 0.00141009 
320 2 54.2973 -5.38325 32.6184 -0.0699116 0.0251463 -0.0159897 
308 1 54.2094 -4.77132 33.2866 0.0153436 0.0211354 0.00964215 
352 2 50.6302 2.58349 30.0861 0.00879275 -0.0451064 -0.0718412 
252 2 40.4101 10.3008 32.4348 0.0887057 -0.068424 -0.021184 
236 1 39.2583 7.43055 30.1459 0.0199102 0.0125525 0.0154596 
238 1 38.4239 10.6967 33.6158 0.0141023 0.0129469 0.00265934 
221 1 36.3644 9.33722 32.2517 -0.00250499 -0.00530408 -0.0163278 
239 1 39.4949 8.53725 31.0189 0.00335315 -0.00429633 0.0124019 
220 1 36.9605 7.40902 30.8847 -0.0236523 0.00979093 0.0134025 
222 1 37.24 8.40193 31.7044 -0.00428938 -0.0135337 0.0108814 
69 2 60.0127 3.48831 19.9615 0.0640103 -0.0879622 0.0178084 
56 1 58.9119 2.21671 26.8781 0.00894573 -0.0132056 -0.00435116 
67 2 57.137 3.61599 28.3739 -0.0459477 -0.0212424 0.0116964 
244 2 36.3956 4.69588 28.2771 0.0987078 -0.0268542 0.0363222 
103 2 59.2792 28.3512 8.87656 0.0129133 0.089826 -0.0798093 
100 2 59.801 27.8734 7.23522 0.0380546 -0.0291967 0.0621803 
152 1 36.2523 16.1559 16.2156 0.0103868 0.0108437 0.00803931 
159 1 36.9627 15.1972 15.2446 -0.0095283 0.0358148 -0.0278128 
169 2 36.4341 14.8679 14.3174 0.0490361 0.11627 0.0479566 
146 1 37.1753 16.9975 17.0026 -0.0118664 -0.0278663 0.013432 
157 1 37.8091 14.4696 16.1018 0.00218797 0.00581359 0.000401387 
171 2 38.0524 13.4881 15.2249 -0.0697477 0.010192 0.0176431 
148 1 36.3378 18.0664 17.7193 0.012703 -0.00334855 0.0378623 
151 1 38.2651 14.8955 17.4063 -0.0144196 -9.87119e-05 -0.0314963 
170 2 40.1206 13.7188 17.1902 0.0533907 0.0136577 0.0367782 
158 1 39.6675 14.5006 17.7898 -0.027305 -0.0308929 -0.0114747 
145 1 38.1091 16.1641 17.7818 0.016051 -0.0218086 -0.0116146 
161 1 39.714 14.6492 19.186 -0.025852 -0.00218603 0.0103006 
147 1 38.4917 16.5373 19.0773 0.0166238 -0.00189407 -0.00582994 
174 2 38.8724 14.8274 21.9481 -0.032829 0.0229547 0.0197575 
153 1 38.7496 15.602 19.8422 -0.0162361 -0.0171703 0.00703615 
155 1 37.2126 17.5428 20.878 -0.00505626 -0.0183522 -0.018245 
149 1 37.7221 17.689 19.4067 -0.0319991 0.0101438 -0.0111541 
165 1 38.0035 16.7618 21.587 0.0134683 -0.0074675 -0.00687923 
162 1 38.8378 15.6445 21.299 -0.00494881 0.00156909 0.0140519 
173 2 40.6724 14.4462 19.561 -0.0853556 0.0911891 0.0386542 
536 2 52.1879 27.092 34.8802 0.11481 0.0877856 -0.00405116 
150 1 36.8813 18.6805 18.9075 -0.00889513 0.0118848 0.0201437 
506 1 50.2345 24.9426 31.8673 0.024626 -0.00623854 -0.0156414 
514 1 50.6365 26.3669 33.5637 0.0253469 -0.0220489 0.0111961 
539 2 52.4603 29.3786 33.6508 -0.0314059 0.0454173 0.0509736 
511 1 49.3395 23.7431 29.7715 -0.0260907 0.00659668 -0.00143303 
529 2 48.778 21.9123 30.5834 -0.00590214 -0.0379449 -0.0266413 
518 1 49.2646 23.214 28.3749 0.000274912 -0.0176331 -0.00349984 
530 2 48.9164 22.3496 28.2171 -0.0905692 -0.0982416 -0.0247774 
521 1 49.954 24.1572 27.5393 -0.0170419 0.0095815 0.00267558 
533 2 50.2424 24.0226 26.509 0.0185613 -0.00247315 0.0766839 
515 1 51.613 28.1518 28.7575 0.00227163 -0.013594 0.000136103 
507 1 50.4885 25.9692 29.4868 0.00894433 -0.0122878 0.032846 
513 1 50.7903 25.4098 28.0922 -0.0191622 0.0212012 0.0216729 
534 2 51.621 26.0352 26.0209 0.0289625 0.0207615 0.0335799 
522 1 51.3738 26.2098 27.0709 -0.0021942 0.0137058 -0.0123929 
525 1 52.1989 27.3663 27.6706 -0.000431975 0.00342148 0.00862811 
509 1 50.8936 27.3667 29.7398 0.00757198 0.0275595 0.0342352 
526 1 51.9565 29.6069 29.2548 0.0031017 -0.0056007 -0.0232722 
524 1 51.6694 27.2161 33.9457 -0.00797933 -0.00112193 -0.0223468 
531 2 48.8019 22.2776 32.9575 0.00808328 0.0141904 0.0561115 
532 2 49.1105 23.6019 34.6996 0.0241421 0.0170499 -0.020827 
517 1 49.0894 22.8724 31.0185 -6.54822e-05 0.00045339 0.00470629 
520 1 49.5171 24.6191 34.3707 0.0141036 0.0199623 0.0155257 
519 1 49.1038 23.021 32.2444 -0.00297956 -0.0140321 0.0305406 
512 1 49.4855 24.3679 32.822 -0.00355585 0.0152205 0.0196381 
508 1 50.7055 26.2696 32.1491 -0.0286475 0.020403 0.000138632 
516 1 51.8415 28.4088 31.7124 0.00927374 -5.11274e-05 -0.0145642 
528 1 52.1976 29.5617 30.7325 0.0240357 -0.0073704 -0.0357324 
505 1 49.7555 24.9078 30.3179 0.0277434 0.0216991 0.00299096 
538 2 52.8483 30.4316 31.2189 -0.0547101 0.0278882 -0.0326456 
527 1 51.8361 28.3713 33.099 6.85859e-05 0.0181874 0.0187909 
535 2 50.5012 25.8489 35.6714 -0.0357788 -0.0946603 0.0179029 
523 1 50.3674 25.7297 34.5803 0.0178018 -0.008366 -0.0198329 
510 1 51.0218 27.2645 31.2536 0.0178142 0.0182854 -0.0128218 
166 1 36.0342 18.3893 21.1602 0.0122201 -0.0249008 -0.0055808 
18 1 62.0667 11.05 -6.99023 0.00298375 0.0190667 0.0133056 
450 1 66.8694 4.54067 10.9184 0.0130357 0.0236482 -0.00641051 
465 2 66.1021 3.26456 9.14188 0.0190423 -0.00579994 -0.0115219 
11 1 62.6868 11.1557 -9.29402 0.00146827 -0.00040575 -0.0189974 
24 1 63.9708 11.1591 -11.6171 -0.0328686 0.0179919 -0.00698487 
22 1 63.4717 10.2872 -10.3796 0.00195449 -0.00551406 -0.00718007 
21 1 62.0487 10.5358 -8.17968 0.0328914 0.0113004 -0.00190128 
34 2 63.3784 9.29781 -10.431 -0.100387 0.0737624 0.114488 
33 2 61.8236 9.51094 -8.21375 -0.109202 -0.118951 -0.0378395 
30 2 61.6995 10.1698 -6.16127 -0.0484129 0.127242 0.0527549 
466 2 65.4003 1.08736 10.0823 0.0643523 0.0606229 0.0372076 
456 1 63.613 0.980307 11.3601 0.01076 -0.012365 0.00875443 
454 1 64.8048 1.5117 10.6475 0.0169444 0.000122452 0.00368247 
468 2 62.9512 0.454637 10.7606 -0.0162444 -0.0264409 0.0559826 
443 1 65.066 2.88946 10.7992 -0.0328846 0.00479141 -0.00932078 
462 2 67.7728 4.64597 10.3452 0.00545271 0.0178736 0.0503787 
453 1 66.0822 3.63754 10.2004 -0.0227958 0.0374694 -0.0197427 
467 2 60.6784 0.398038 11.9972 0.000227062 -0.0457065 0.00881115 
437 1 64.3461 3.71487 12.0046 -0.00416101 0.01624 0.0126751 
442 1 61.0436 3.52087 13.817 0.00292316 -0.000988753 -0.00668709 
448 1 61.2997 4.57686 15.9642 -0.0130896 -0.00893466 0.000635713 
455 1 61.2829 1.4773 12.2697 0.016838 -0.000328229 -0.00666794 
451 1 60.4146 4.39528 14.7375 0.0138552 -0.000292874 0.0142016 
273 1 83.6998 -6.20705 26.7939 -0.0351703 -0.0152753 0.0281852 
441 1 66.5561 4.80073 12.3808 0.0221241 0.00635303 -0.0121143 
439 1 65.0092 5.81147 15.1247 -0.00403939 0.00729869 -0.00106964 
435 1 65.1487 4.3217 12.9311 0.0177493 -0.0129204 -0.00787082 
433 1 64.4303 4.9418 14.065 -7.24945e-05 0.0058953 -0.0385293 
284 2 79.7358 -11.6083 24.4339 -0.0425918 0.0114496 0.0241578 
440 1 62.5389 5.02362 15.6745 0.0230219 0.0224745 -0.0333562 
434 1 63.1296 4.45922 14.5547 0.0163126 -0.000556795 0.00614645 
438 1 63.2093 3.17052 12.5618 0.0137454 -0.00941936 -0.024126 
436 1 62.3735 3.78131 13.7338 -0.00344567 0.0228893 -0.00426676 
444 1 62.7297 1.81624 12.1994 0.00435097 0.00556372 0.00670449 
68 2 60.3464 1.28513 27.1533 0.005356 0.0042864 -0.0454041 
461 2 67.7716 6.06958 14.1229 -0.0108991 0.0244653 0.0415877 
270 1 83.1231 -5.44717 27.9427 0.0108434 -0.0365541 -0.00308464 
449 1 66.9933 5.5403 13.5298 -0.00591485 0.00809172 0.0218114 
48 1 60.78 4.34783 23.7956 0.00419297 0.0256193 0.0165777 
277 2 77.4939 -7.0637 30.568 0.0329161 0.0050875 0.0738699 
446 1 66.0404 6.51484 14.2535 0.0216155 -0.0262616 0.00786735 
457 2 65.2201 6.63793 16.8439 -0.0443603 -0.033029 0.136688 
445 1 64.4303 6.21425 16.2498 -0.00545502 -0.0161892 -0.00164702 
447 1 63.2855 5.29361 16.5866 0.0164072 -0.030341 -0.0250875 
459 2 62.8073 4.99703 17.5566 0.0485485 0.0277739 0.0772679 
261 1 82.0114 -6.13722 28.7714 0.000107568 0.0102873 -0.00560212 
458 2 65.8158 7.6073 14.1619 -0.00146999 0.0300312 -0.0980775 
287 2 82.0631 -11.422 24.2537 0.032654 -0.0279285 -0.0754049 
72 2 61.3118 4.7249 24.6515 -0.029159 0.099128 -0.0418486 
452 1 60.6965 2.25329 13.2572 0.0143405 0.0090054 -0.0322163 
70 2 60.5271 5.89049 21.1948 0.0101074 0.0314965 0.0530873 
60 1 61.5588 4.25452 22.5409 -0.022838 -0.0125185 -0.0193295 
58 1 60.62 4.94924 21.6224 -0.0394608 -0.0279616 -0.00880158 
279 2 76.7757 -9.54292 30.3352 -0.0129864 0.0450574 0.0242447 
280 2 77.6956 -11.8332 29.138 -0.0069396 -0.0230062 0.025349 
267 1 77.6909 -8.9469 29.8095 -0.0153096 0.00102008 0.0130059 
275 1 81.7724 -11.2249 25.2291 -0.00732265 -0.0336037 0.027575 
264 1 82.2228 -10.063 26.1014 0.00350883 0.0050922 0.0074413 
262 1 79.4556 -10.8504 26.5122 0.00197064 0.00361426 -0.0109214 
255 1 81.088 -7.00975 28.047 -0.02685 0.0193259 -0.00208365 
256 1 79.8901 -9.35526 26.7383 -0.0100469 -0.027042 0.0131049 
265 1 78.2896 -7.62106 30.0241 -0.0211016 0.00497521 0.016572 
253 1 79.9478 -7.65345 28.6347 -0.00170385 0.000818108 0.0169936 
254 1 79.3529 -8.78368 27.9557 0.000958497 0.0230881 -0.00569477 
268 1 77.9695 -10.9568 28.5079 0.00875769 -0.00329587 0.00975365 
260 1 78.5243 -9.63602 28.8482 0.0019364 0.00868096 0.00198897 
271 1 78.7771 -11.6853 27.481 -0.00524719 0.00876924 0.00818202 
259 1 79.4612 -6.87711 29.6608 0.0282851 -0.0174002 0.00999497 
272 1 80.2191 -11.42 25.4342 -0.00597135 -0.0103981 -0.0244866 
258 1 81.2303 -8.89271 26.4716 -0.00747184 0.0311283 -0.0171592 