ITEM: TIMESTEP
270000
ITEM: NUMBER OF ATOMS
576
ITEM: BOX BOUNDS pp pp pp
-1.2000000000000000e+01 8.4000000000000000e+01
-1.2000000000000000e+01 3.6000000000000000e+01
-1.2000000000000000e+01 3.6000000000000000e+01
ITEM: ATOMS id type x y z vx vy vz 
537 2 0.31195 -9.61674 5.80531 0.0991031 -0.0296337 0.0555419 
540 2 -0.0667602 -9.60417 6.12688 -0.0734569 0.0341374 -0.013153 
277 2 -7.5559 -8.00725 11.8212 -0.0845533 -0.0881547 -0.0250284 
278 2 -7.30568 -6.14936 11.8675 0.0478395 -0.00901668 0.0267698 
262 1 -7.79069 -8.88389 17.9048 -0.0067802 -0.0243889 -0.00232887 
271 1 -8.91665 -9.53027 17.1472 -0.00126509 -0.0081881 0.0314217 
256 1 -7.24202 -7.77289 17.1033 0.0132683 0.00418141 -0.0156803 
268 1 -9.16417 -9.69398 15.8152 -0.0163712 -0.00635001 0.0179705 
280 2 -9.9217 -10.286 15.2675 0.0391218 0.0759432 -0.109576 
260 1 -8.1442 -8.87799 15.0717 -0.0249817 -0.0118953 0.0199812 
254 1 -7.50348 -7.56898 15.699 -0.00479788 -0.00574233 -0.00296647 
267 1 -7.63063 -9.17106 13.629 0.00091559 -0.0199949 0.00450548 
279 2 -7.94781 -10.0679 13.0861 -0.0434498 -0.0415396 0.0555294 
265 1 -7.28439 -7.98875 12.9322 -0.00148245 0.0171752 -0.0117575 
259 1 -6.839 -6.82152 13.5981 -0.018567 0.00439078 -0.00905923 
253 1 -6.87948 -6.57836 14.9541 -0.0357803 -0.00599669 0.0316942 
258 1 -6.78331 -6.47489 17.7264 0.0136096 0.00706465 0.00403096 
283 2 -9.65837 -10.0922 17.603 0.038434 0.0377571 -0.014184 
208 2 -4.48154 -7.17668 15.3709 -0.0583977 -0.00754809 0.0474805 
188 1 -3.20167 -6.71056 17.2121 0.00163818 0.00636667 -0.00410387 
196 1 -3.72173 -6.45545 15.7909 -0.0228416 0.0200858 -0.028499 
199 1 -2.93981 -5.75389 15.0083 -0.0104276 0.00885265 0.0113006 
211 2 -3.0839 -5.59238 14.0361 0.0670326 -0.0655828 0.0305503 
207 2 -4.16559 -8.21495 17.152 0.0977507 -0.101037 -0.0367334 
195 1 -3.75532 -7.6932 18.0235 -0.00383126 0.0217272 -0.0115976 
182 1 -2.06853 -6.11619 17.7777 -0.0215316 0.00456498 -0.0223821 
190 1 -1.66539 -5.16523 15.4993 -0.00317214 0.0149291 0.00905458 
257 1 -6.24516 -5.21743 16.9697 -0.0265716 0.0126781 -0.011484 
263 1 -5.75593 -3.99034 17.5649 0.0225995 -0.0259521 0.0074963 
184 1 -1.14351 -5.70529 16.7052 0.00479036 0.0186866 -0.0167199 
273 1 -4.86813 -3.07299 16.8456 -0.0173375 0.0170333 0.0161593 
285 2 -4.13323 -2.46763 17.0186 0.0542204 -0.102458 0.00410557 
255 1 -6.17269 -5.45666 15.5632 0.00247895 -0.0211055 0.0210801 
261 1 -5.56536 -4.47471 14.5672 -0.0123849 0.0147983 0.028151 
270 1 -4.96822 -3.35576 15.4579 0.0161017 -0.0183073 -0.0184992 
269 1 -6.11966 -4.6862 13.2478 0.0171215 0.00315806 -0.0109353 
266 1 -6.83388 -5.75337 12.8152 0.0048499 0.0234199 0.00448828 
214 2 2.90991 -2.74178 18.5851 0.00197808 -0.0247958 -0.0914673 
186 1 -0.0127877 -5.35315 17.5184 0.00127453 0.00568286 0.0074493 
200 1 -1.03051 -4.21488 14.7086 0.00206095 -0.0247576 -0.00186958 
212 2 -1.68492 -4.20543 13.8166 0.0286275 -0.0126632 0.0313888 
203 1 0.164614 -3.67227 15.3283 -0.00441097 0.0174768 0.039976 
215 2 0.792669 -3.17502 14.6726 -0.0466409 -0.0219126 -0.0188512 
192 1 0.842482 -4.51953 16.2696 0.0132568 0.0160979 0.00334397 
204 1 1.67296 -3.67016 16.9575 -0.0215546 0.00693012 0.0193016 
272 1 -7.52548 -8.76844 19.2963 -0.00790317 0.0185896 0.00573348 
275 1 -7.41811 -7.43263 19.6872 0.00209175 -0.0145156 0.00283409 
284 2 -8.15736 -9.74122 19.5586 0.00956605 -0.0186312 -0.0817198 
287 2 -7.20603 -7.22218 20.7366 0.0115609 0.0435652 -0.0763349 
193 1 -3.77601 -7.88131 19.5372 0.0111169 -0.0180826 -0.00899873 
187 1 -2.91166 -6.78914 20.0798 0.0368029 -5.32047e-05 0.0128595 
206 2 -3.43776 -7.23571 21.9256 -0.0478092 0.00730308 -0.00332848 
205 2 -4.56935 -8.43332 20.2021 -0.067192 0.153074 -0.00464116 
181 1 -2.01282 -6.17513 19.1171 3.71575e-05 0.00256034 0.00585486 
274 1 -5.94189 -4.078 19.0469 0.0230111 0.0190752 0.000462424 
276 1 -6.87554 -4.80712 19.7995 0.0153953 -0.00910602 0.0173515 
288 2 -7.11651 -4.74884 21.0805 -0.0111742 -0.0891463 -0.0410531 
264 1 -7.05624 -6.12765 19.0066 -0.00613531 -0.0241346 0.00198606 
286 2 -4.77054 -4.05425 19.4029 0.0907815 -0.0404503 -0.0298287 
194 1 -3.18452 -6.18355 21.5368 0.00946614 -0.0113343 0.00424479 
183 1 -1.05536 -5.28848 19.7605 -0.0128794 0.0047669 0.0180629 
209 2 -3.01971 -4.65502 22.4084 0.00817829 -0.00957278 0.0873168 
197 1 -2.04293 -5.44229 21.944 0.0122728 0.0199492 0.00440944 
189 1 -0.810044 -4.89705 21.1101 -0.00243563 -0.00806201 0.00409737 
185 1 -0.0246221 -4.89684 18.9063 -0.00766624 0.00853919 0.00496104 
210 2 0.0914807 -3.39352 22.7407 0.0659609 -0.0391396 0.0424374 
213 2 1.66484 -2.44157 20.4669 0.0331848 0.0260891 -0.0235058 
198 1 -0.00268866 -3.79471 21.5834 0.0098057 -0.00534224 -0.0347167 
201 1 1.00316 -3.44264 20.5394 -0.0204435 0.0022811 -0.0232767 
202 1 2.059 -3.22563 18.1816 -0.0197974 -0.00584803 -0.0334122 
191 1 1.00693 -3.7529 19.2189 -0.0245424 0.0106229 0.00531557 
281 2 -5.45145 -3.81803 12.7915 -0.0804126 0.00762055 -0.00138226 
388 2 -11.8128 17.4713 1.11022 -0.0607671 -0.0800129 0.0161523 
108 2 7.89263 17.3822 -0.347879 0.0354616 0.0148811 -0.0497411 
391 2 -12.2575 19.6337 -0.0845582 0.00486639 0.0207152 -0.0809378 
385 2 -11.6503 17.2175 5.84405 0.00828421 -0.00292516 0.0191872 
177 2 1.70106 35.4685 22.6608 0.0620832 0.0299507 -0.0371169 
105 2 25.1953 4.85775 28.5214 0.00563319 -0.0280321 -0.00150444 
250 2 34.9142 10.3542 31.1789 -0.00689532 -0.0532683 -0.0764625 
240 1 35.7958 11.834 32.2034 0.0053374 0.00889477 -0.012909 
238 1 35.7494 10.494 31.8278 -0.000712204 -0.00846651 0.0078638 
419 1 30.0482 16.4522 0.43712 0.0226067 -0.0353018 0.0042899 
431 2 30.4262 16.8341 -0.649341 0.0221819 0.0482512 0.000577686 
428 2 30.937 14.454 0.809696 0.0130926 0.0633838 0.0672037 
418 1 29.534 19.0027 -1.71053 -0.0102647 0.0222066 0.00823237 
432 2 30.2671 18.4977 -2.50558 -0.0117096 0.0713654 -0.0264357 
420 1 29.7331 18.4117 -0.42613 -0.00580332 -0.0121058 0.00955939 
430 2 29.0249 19.846 -1.78706 0.00919521 -0.00754442 -0.0325191 
397 1 27.2691 17.0899 4.53282 -0.0168417 -0.0147209 0.01652 
403 1 26.6055 16.965 5.89714 -0.023549 0.0163482 0.0105057 
398 1 28.4272 16.207 4.17049 -0.0310427 -0.0140337 0.0235619 
400 1 29.1345 16.58 3.00225 0.0384066 -0.0208234 -0.01251 
411 1 28.5596 15.3019 6.28336 0.00053409 0.00661069 0.0273525 
404 1 29.2691 15.336 4.99795 -0.0100802 0.0210381 -0.0111875 
402 1 28.8559 17.6176 2.03421 -0.0284119 -0.009423 -0.0186926 
409 1 27.7131 16.3785 6.67276 -0.0133031 0.0245231 -0.00936176 
410 1 25.125 17.3436 5.89341 -0.0227923 -0.0172591 0.0109601 
416 1 30.4666 15.2601 1.08708 0.00827819 -0.00804006 -0.0046364 
427 2 32.0058 14.0523 3.196 -0.104611 0.0613019 0.101082 
406 1 30.0872 15.4963 2.44642 -0.019605 -0.0207164 0.0160678 
424 2 31.1368 13.9749 5.02934 0.0073917 -0.0284488 -0.0345404 
412 1 30.4431 14.5796 4.52442 0.0183701 -0.0299636 -0.0136194 
415 1 30.9598 14.6511 3.35058 0.0229226 -0.0168848 0.0158669 
408 1 29.6399 17.7586 0.719553 0.0302194 -0.0237288 0.00222299 
399 1 26.9462 18.1151 3.57578 -0.00103728 0.0290665 0.00138971 
426 2 25.2993 20.3275 1.64108 -0.0511904 -0.0251825 0.111699 
405 1 25.6875 18.7027 3.96441 0.0022109 -0.0191748 -0.010071 
413 1 24.7252 18.3686 5.04568 0.0113884 0.0100711 0.00580077 
414 1 26.1329 20.1701 3.67638 -0.000768006 0.0318868 -0.00815313 
401 1 27.7214 18.5434 2.25206 -0.00365987 0.0113313 -0.00779184 
417 1 26.2747 20.5608 2.25075 0.00559737 0.00987991 0.00435115 
407 1 27.6878 19.8929 1.88986 0.00871328 0.0358218 -0.0187996 
429 2 27.9759 20.0491 0.84794 0.0805484 -0.157197 0.00240528 
421 2 27.5234 16.7097 7.76799 -0.0514386 -0.0600002 0.0200461 
422 2 24.5086 16.7466 6.57634 0.00644272 -0.0606414 0.0314712 
423 2 29.0657 14.6751 7.08851 -0.00531666 -0.0366327 0.00956404 
425 2 23.8871 19.1513 5.27066 0.00513354 -0.0259388 -0.0331992 
563 1 22.6057 27.298 11.0049 -0.0315126 0.0147346 -0.000794712 
575 2 21.7491 27.2101 10.4103 0.0630456 -0.0697155 0.00619429 
550 1 25.0112 26.8825 11.7533 -0.0265756 0.00806714 0.0258566 
560 1 24.0205 26.7712 10.9639 0.000318386 0.011402 0.0215406 
571 2 26.4954 25.3212 11.2437 -0.0493911 0.027771 -0.0382396 
559 1 26.5003 26.3601 11.4408 -0.00855535 0.0180323 -0.0117181 
572 2 24.4343 25.9241 10.2406 0.0286141 -0.0588253 -0.00374958 
568 2 28.5587 27.0176 11.609 0.063996 0.0171247 0.0473301 
556 1 27.481 27.3419 11.4853 -0.00544724 0.0201931 -0.0099586 
551 1 22.1548 30.2607 13.6172 0.00307598 0.024265 -0.0206827 
564 1 20.9593 28.5474 12.4403 0.0205704 0.0111494 -0.00880344 
545 1 23.436 29.8316 13.7351 0.00902461 0.0254735 0.00149601 
562 1 20.9473 29.3454 13.5475 0.0191954 0.0129316 0.0297914 
544 1 24.818 28.0206 12.638 0.0201298 0.0380766 -0.0116786 
574 2 20.106 29.174 14.3686 -0.0494997 0.00876775 0.0800922 
546 1 23.4501 28.6507 12.7389 0.0202224 0.0166729 -0.00123662 
252 2 35.3649 12.7918 32.2362 -0.0192121 0.0721948 0.088097 
552 1 22.274 27.9319 12.13 -0.0136515 -0.0203191 -0.020933 
548 1 27.3067 28.7086 12.1226 -0.00450927 0.0258215 -0.0201088 
555 1 28.3824 29.5165 12.4162 -0.0104423 -0.00844353 0.00493127 
542 1 25.9694 28.8862 12.7232 0.00914712 -0.0376647 0.00720181 
541 1 25.8279 30.0728 13.5669 -0.00739416 -0.0194861 0.0116502 
561 1 21.733 31.8684 13.7471 0.0212387 0.00956071 0.0222922 
549 1 24.3497 31.8284 14.8678 0.00374856 -0.00376884 0.031121 
558 1 22.947 32.5163 14.2919 -0.0183787 -0.000528454 0.00560528 
570 2 23.1362 33.5334 13.779 0.02285 -0.0310739 0.0248018 
573 2 20.6068 31.7665 14.0481 0.00635947 0.0919927 0.0451745 
557 1 25.4886 32.8053 14.67 -0.0051578 0.0151807 0.0188076 
543 1 24.6054 30.5633 14.3046 0.00792114 -0.00537435 0.0295704 
566 2 27.3461 32.349 15.6978 -0.0434227 -0.0284001 0.0127825 
565 2 29.0237 31.0195 13.8327 -0.0371112 0.0750843 -0.0937405 
553 1 28.3232 30.5429 13.5516 0.0157358 -0.000632425 -0.00753984 
554 1 26.674 31.9858 14.9615 -0.00541919 0.0207728 0.0055832 
547 1 27.0196 30.8283 13.8579 -0.00660637 -0.0205995 0.0145564 
569 2 25.2431 33.5329 13.7582 -0.0154819 -0.0807075 -0.0377633 
71 2 32.4781 35.9181 34.6495 0.0517028 0.0178684 0.0703767 
567 2 29.4276 29.4017 12.2822 0.0337769 -0.00109273 -0.0392072 
576 2 20.0706 27.7421 12.3321 0.0292105 0.0828272 0.0406444 
11 1 59.3907 10.1168 -11.7672 -0.00369918 -0.0193858 0.0115368 
29 2 58.2597 6.07399 -9.41557 -0.0783783 0.0554236 -0.034888 
17 1 59.0678 6.76207 -9.01226 0.0150318 -0.0160519 -0.0152643 
9 1 59.1651 8.1389 -9.62214 -0.00411104 -0.0503609 0.0157832 
30 2 58.0906 7.0665 -11.2128 -0.0129535 -0.00658444 -0.0593423 
18 1 58.5143 8.07498 -10.8589 0.0147449 0.0119297 0.00969702 
5 1 59.8871 9.97706 -10.3494 0.007446 0.023396 0.000940414 
457 2 50.2604 -5.57462 21.5492 0.0580726 0.0533085 0.092135 
446 1 48.2165 -4.45412 22.6116 0.0135102 -0.0213658 -0.0320899 
458 2 48.0649 -5.60875 22.2124 0.0909618 -0.0689646 0.101895 
461 2 46.2095 -4.19225 23.2909 0.0828928 0.100026 0.0223977 
449 1 47.1857 -3.76325 23.4523 -0.0106703 -0.00503425 -0.0127939 
439 1 49.4883 -3.91994 22.7796 0.0245565 -0.00573094 0.0114583 
459 2 52.7273 -5.48401 22.0936 0.101132 0.042639 -0.0256555 
445 1 50.5535 -4.59279 22.0298 -0.00510182 0.0154523 0.0208721 
447 1 51.9415 -4.52969 22.4386 0.00841681 0.01369 -0.041567 
354 2 58.7557 10.1576 22.7363 0.0896211 0.0492012 -0.0601821 
312 1 48.9345 -6.27713 26.5752 0.00386633 -0.00653348 0.00174029 
310 1 50.4541 -6.67384 26.2552 -0.00315035 -0.00868496 0.00895353 
324 2 48.174 -6.46719 25.8294 0.0325964 0.0430137 0.0203568 
299 1 51.4518 -6.52289 27.2707 -0.00378768 -0.00103868 0.00531838 
322 2 50.6052 -7.05705 25.1585 0.0706648 -0.0236858 -0.0489975 
293 1 50.509 -6.30884 28.3242 -0.0211611 0.0147638 0.0218932 
309 1 52.8276 -7.05183 28.0047 0.00395587 -0.0145074 -0.00828484 
321 2 53.5448 -6.63117 27.4946 0.00951201 -0.013667 -0.021499 
291 1 50.8968 -7.32976 29.3971 -0.00629898 0.00230592 0.0105755 
306 1 52.8164 -8.12658 28.7301 0.00887579 0.0170701 -0.0170913 
318 2 53.4119 -9.126 28.7403 -0.0160503 0.0620318 0.018536 
297 1 51.4653 -8.52899 29.2997 0.00884238 0.00175371 -0.0232225 
435 1 48.7342 -1.7154 23.6341 -0.00333267 -0.0102513 -0.00737176 
441 1 47.3378 -2.38239 24.0495 -0.00202416 0.0126254 -0.0218335 
323 2 46.0178 -4.2006 27.2546 -0.0564146 0.0176585 -0.0989055 
462 2 46.1965 -2.46258 26.0227 0.0627485 -0.0183404 0.00559174 
450 1 46.7096 -1.83055 25.205 0.0374557 0.00727512 -0.000739957 
311 1 46.9596 -4.7648 27.7711 0.00566043 0.0168393 -0.00152514 
308 1 46.7096 -4.05578 29.0287 -0.0332564 -0.0147584 -0.011746 
320 2 45.9491 -3.53711 29.3753 -0.00629284 0.0101004 -0.016901 
298 1 47.6288 -4.76134 30.1413 -0.00257735 0.0254913 0.00568644 
453 1 46.8509 -0.292133 25.5173 -0.00596889 -0.0297446 -0.0267675 
440 1 52.4232 -3.58862 23.2293 -0.00364265 0.0149024 -0.00115603 
460 2 53.8573 -4.19327 24.6265 -0.0484813 0.0282627 0.0807258 
300 1 48.5001 -5.35367 27.5717 -0.0214479 0.0105682 0.000801541 
294 1 49.6188 -5.1446 28.6202 0.0145137 0.00321589 0.00556247 
437 1 49.1069 -0.434991 24.063 0.00750128 -0.00396842 -0.0183909 
433 1 49.886 -2.56074 23.1731 0.00290219 0.0294062 -0.0167227 
434 1 51.3861 -2.34039 23.2842 0.00285844 0.00445464 0.00515744 
448 1 53.4023 -3.26309 24.3141 0.0340534 0.0112445 -0.0238217 
292 1 48.8875 -5.30013 29.8588 0.0196168 0.00405595 0.0120344 
451 1 53.4189 -1.81233 24.979 -0.000601579 -0.00706891 -0.0012345 
438 1 50.4519 -0.176067 23.8621 0.00630927 -0.0258913 -0.0182189 
436 1 51.6321 -1.12841 23.7497 0.0183768 0.0383619 0.00218284 
442 1 52.8577 -0.493655 24.3329 0.00327105 -0.016745 -0.0070757 
463 2 53.0773 -1.64027 25.9408 -0.046247 -0.0092976 -0.0534443 
465 2 46.4142 0.60143 26.0759 -0.04379 0.0013722 0.0667519 
466 2 47.8362 2.67105 25.25 0.0212576 0.054766 0.00207104 
443 1 48.0449 0.30846 24.8531 0.0163745 0.012945 0.00146389 
452 1 53.3081 0.909397 24.693 0.0180317 0.0156339 -0.0197959 
464 2 54.2912 0.764533 25.3801 0.0325218 -0.0459145 -0.0273291 
454 1 48.394 1.79227 24.9052 -0.00751189 0.00967484 0.0204437 
444 1 50.9147 1.15704 24.242 -0.00470329 0.0134383 0.00961775 
467 2 52.2904 3.05127 24.6649 -0.00466923 0.061521 0.00265983 
455 1 52.1279 1.87566 24.4605 0.0219343 -0.0172264 0.0115014 
468 2 50.2146 2.88309 24.3323 -0.0269333 0.0243808 -0.0707449 
456 1 49.6371 1.99142 24.6169 -0.00258034 0.00691983 4.05987e-05 
249 2 36.7597 8.90952 29.3749 0.056036 0.0230267 0.0355401 
328 1 58.8815 11.5891 28.6907 0.0112228 0.0111483 -0.0152868 
357 2 57.7352 8.28338 23.9208 0.0599392 -0.0210071 0.0011474 
345 1 58.1212 9.05687 24.5893 -0.0130141 0.00574363 -0.0214584 
358 2 56.3702 7.14597 26.4328 0.032859 -0.0621597 -0.0775517 
346 1 56.9461 8.18986 26.7464 -0.00788863 0.0185128 -0.00675213 
342 1 58.6434 10.0194 23.8634 0.0189986 -0.0144704 -0.0176375 
335 1 57.8741 8.98776 26.0721 -0.0067958 -0.0170067 0.00531119 
329 1 57.9225 10.367 26.7241 -0.00177326 0.000574914 0.00964531 
348 1 56.5943 8.86395 28.1861 -0.00851703 -0.0242624 -0.0270515 
336 1 57.3755 9.68437 29.0266 -0.0131884 0.0274977 -0.018326 
330 1 57.7443 10.8432 28.1638 0.00936566 0.0109502 0.00313524 
360 2 55.7139 8.31194 28.3807 -0.0478619 -0.0167102 0.0264389 
333 1 59.3333 11.0598 24.5941 0.00063229 0.0074244 0.0148192 
327 1 59.1653 10.9716 26.0612 -0.0148202 -0.0347159 0.00784638 
289 1 50.4188 -6.5422 30.5889 -0.0182005 -0.0320071 -0.00615395 
302 1 52.0653 -8.13304 31.7165 0.0395563 -0.0148192 -0.00499368 
295 1 51.082 -7.06582 31.6576 0.00322696 0.00545593 0.004791 
305 1 51.4783 -8.98757 30.7178 -0.000718688 0.023725 -0.0123797 
314 2 53.0586 -8.56688 31.6755 0.0563347 -0.013749 -0.00941947 
317 2 50.5568 -9.56957 30.9892 0.0388635 -0.045552 0.0448092 
301 1 50.5373 -7.23937 32.9213 0.00710029 0.00352797 0.0110228 
313 2 51.1175 -7.97426 33.5849 0.0555238 0.00241863 -0.0563441 
307 1 47.1586 -3.97959 31.3777 -0.00581275 -0.00270472 0.0119659 
319 2 46.2858 -3.34053 31.7602 0.104974 -0.0653554 0.015508 
316 2 47.6291 -4.10121 33.2396 -0.0235586 0.0589433 0.0320626 
304 1 47.8957 -4.71393 32.3585 -0.0184997 -0.0044254 0.0398479 
296 1 48.9204 -5.82406 32.2425 0.0142259 0.00664853 0.0287611 
315 2 49.4387 -6.60932 34.4758 0.0341854 -0.115197 0.0452876 
303 1 49.6171 -6.29442 33.5024 0.0040419 0.00364928 0.0141187 
290 1 49.2244 -6.14806 30.791 0.00271398 -0.0213341 0.00269388 
246 2 38.9419 7.58634 30.6011 -0.0891546 0.0347342 -0.0766281 
221 1 38.4319 10.8099 32.0706 -0.00228862 -0.0143984 0.00179772 
21 1 58.4185 8.99553 35.973 -0.00804228 -0.00933239 0.0120453 
227 1 37.2054 10.1469 31.3653 0.00145381 -0.00368853 0.0025011 
237 1 37.4314 9.17424 30.2846 -0.0206824 0.00379456 -0.01119 
219 1 39.6823 10.1295 32.1004 0.00804339 0.00231814 0.0054237 
234 1 38.7929 8.5734 30.5106 0.010103 0.0089165 0.0164753 
225 1 40.0407 9.04753 31.3819 -0.0129396 -0.0377859 -0.00471378 
217 1 40.8677 10.5954 32.8769 -0.0139714 0.00477987 -0.000196013 
233 1 41.2066 8.30796 31.6293 -0.0129666 -0.00866566 -0.0180575 
245 2 41.9078 7.81075 30.954 0.00390779 -0.0265196 -0.0760602 
359 2 57.0576 8.75915 30.7967 0.0496337 6.80027e-05 -0.016466 
223 1 41.8476 9.93647 33.6142 -0.000203678 0.000139963 -0.0023608 
230 1 42.036 8.73684 32.7257 0.0115832 0.00168577 0.00109157 
242 2 41.9106 7.44264 33.1216 0.00642427 -0.0245231 0.0120767 
229 1 42.9317 10.6457 34.3358 0.00797642 0.00781697 -0.00451098 
241 2 43.6757 10.1245 35.0329 0.0370463 -0.117632 0.0198194 
22 1 59.1607 11.4508 35.7803 0.0132088 0.0155421 0.013913 
34 2 58.4285 11.6701 34.8814 -0.00635932 -0.0376858 0.0371016 
356 2 57.849 10.588 32.0791 -0.0272564 -0.104086 -0.0268385 
344 1 57.9438 10.5684 30.9521 -0.00164466 -0.0119452 0.00888697 
347 1 57.2901 9.65767 30.4073 -0.018165 -0.0117647 0.0118592 
334 1 58.7784 11.2999 30.2959 0.00658868 0.0251047 -0.0012073 
216 2 58.9467 5.24208 26.9656 -0.0616808 0.00652371 -0.0228106 
33 2 58.2759 8.91166 35.0288 0.0493492 0.0124659 -0.0289544 
218 1 40.8488 11.8989 33.4133 -0.0091099 -0.00347898 0.0151629 
222 1 38.3841 11.9804 32.7035 -0.00357 0.00334936 0.0188292 
107 2 59.9137 25.8224 0.115814 0.0558688 -0.0236022 -0.0445367 
106 2 59.2661 23.497 0.430863 -0.000163721 -0.0442354 0.0215532 
24 1 59.8189 12.7627 -11.8345 -0.00261658 0.0189661 0.0033334 
157 1 43.8504 17.5892 17.7706 0.0028981 0.0250414 -0.034807 
171 2 42.9657 17.0134 17.538 0.0543235 -0.049977 -0.0561708 
145 1 46.2587 17.2535 17.7842 -0.0405666 -0.00045171 0.0268861 
151 1 45.0798 17.3143 16.9745 -0.0128733 -0.00121039 -6.30381e-05 
158 1 45.2045 16.5336 15.6773 0.00287633 -0.00513719 -0.00390202 
170 2 44.2014 16.6265 15.0051 -0.0104494 0.0306626 0.0369434 
161 1 46.2668 15.8086 15.6184 0.0115282 0.0225027 -0.0119157 
173 2 46.3358 15.2977 14.6958 -0.0723132 0.0291459 -0.0454499 
147 1 47.5798 16.7058 17.4361 0.0104396 -0.0116299 0.0115494 
153 1 47.5972 15.8869 16.3295 -0.0261552 0.0220053 -0.00713879 
162 1 48.7585 15.0864 15.921 -0.0244074 -0.0108283 -0.0402297 
165 1 49.8345 15.5006 16.819 -0.0247202 -0.0228678 -0.00315246 
174 2 48.975 15.0759 14.8019 -0.0263006 -0.0704881 0.0346082 
155 1 50.0091 16.6933 17.6952 -0.0072128 0.00512023 -0.00443256 
178 2 51.7221 16.3013 18.619 -0.0150467 0.0177507 -0.0192473 
149 1 48.7506 17.484 17.8489 -0.0162789 0.0324576 -0.0172944 
166 1 50.976 17.0113 18.5936 -0.00392152 0.00808015 0.0224903 
169 2 43.7484 17.5319 20.0736 -0.020118 0.0104285 -0.0882584 
159 1 43.9723 18.1891 19.1522 0.0199402 -0.00102448 0.0186753 
152 1 45.2738 19.0474 19.0053 0.0172163 -0.0256417 0.00664317 
146 1 46.5055 18.3208 18.7195 0.00555085 -0.0222322 0.0185056 
172 2 43.765 20.8729 19.6351 0.039793 0.0455334 -0.0189565 
160 1 45.0186 20.349 19.51 -0.027995 0.0239564 0.0440359 
163 1 45.9961 20.5656 20.5668 0.00795251 -0.00929716 0.0106007 
175 2 45.9576 20.367 21.5989 -0.0152751 0.0137046 -0.0168969 
154 1 47.269 20.1058 19.9859 0.00138132 0.0145265 0.0031482 
148 1 47.7031 18.8386 19.2629 -0.00455664 -0.0241665 0.00796475 
150 1 48.9082 18.5774 18.7737 -0.0203816 0.0144536 -0.000836955 
164 1 48.5068 20.4403 20.4713 0.0199052 0.00423523 0.0130592 
156 1 50.0245 18.7274 19.4131 0.0157867 -0.0332925 0.0039906 
167 1 49.7456 20.1072 20.4406 -0.0047638 0.0226601 -0.00277963 
168 1 50.8862 17.7222 19.7461 -0.00704828 0.000549373 0.0248646 
176 2 50.3825 20.612 21.0553 0.0632082 0.0201843 -0.0670173 
180 2 51.3678 17.7081 20.6616 -0.0512521 0.0769482 0.0676209 
534 2 46.3509 16.7746 28.7763 0.0536076 0.087752 -0.0137621 
522 1 46.2471 17.8687 28.7584 0.0120783 -0.0141603 0.00734338 
513 1 46.3315 18.586 30.0166 -0.00575711 0.00237751 0.0110224 
525 1 45.8132 18.6494 27.6953 -0.01492 -0.0048897 -0.00603299 
515 1 45.7988 20.271 27.9057 -0.0144269 -0.00189337 -0.00604226 
526 1 44.9175 20.8992 26.8858 -0.00953217 -0.0194481 -0.033529 
538 2 43.9897 20.6863 26.2954 0.0636996 0.068056 -0.0233138 
528 1 45.0834 22.2067 27.1108 0.0143449 -0.0152881 -0.000968711 
516 1 45.7461 23.1419 28.03 -0.0235046 -0.00553657 -0.0198118 
509 1 46.2252 20.6899 29.1349 -0.0237059 0.00920773 -0.013431 
510 1 45.7475 22.2243 29.3413 0.0162323 -0.0131087 -0.00786005 
539 2 46.3599 24.9211 28.0381 0.0780836 0.0174981 -0.0665552 
527 1 45.5413 24.4779 28.6501 -0.00895838 -0.0268671 -0.0246655 
239 1 37.2669 14.1153 32.9877 0.026829 -0.00585946 0.0213174 
232 1 41.5432 13.8256 34.8643 -0.00908133 0.00322876 -0.0217647 
251 2 36.648 15.1451 32.8037 -0.0341583 0.00850929 -0.0852286 
224 1 41.6728 12.4793 34.2398 -0.0185621 -6.5913e-05 0.0167717 
235 1 40.7376 14.3994 34.0572 0.0182512 0.0238356 -0.0144874 
220 1 39.5077 12.6635 33.2805 -0.00599555 0.017318 -0.0114755 
226 1 39.5352 14.0061 33.238 -0.000442161 -0.0252879 -0.00764968 
236 1 38.4778 14.7949 32.8449 0.0113422 -0.0264837 0.0067344 
248 2 38.595 15.9249 32.7832 0.00755444 -0.00930905 0.0401801 
243 2 43.6635 12.2871 35.4778 0.00532415 -0.151069 0.0391878 
228 1 37.0155 12.7105 32.6559 -0.00948297 0.0342582 -0.00317183 
524 1 44.7245 24.959 29.6682 0.0129594 0.00381323 0.0203559 
247 2 40.661 15.4097 33.9959 -0.0390089 0.0327783 -0.118262 
533 2 46.5563 16.8285 31.2478 -0.0437044 -0.000305005 -0.0595645 
244 2 42.3713 14.5976 35.1283 -0.0788803 -0.0350951 -0.0216859 
521 1 46.7034 17.8143 31.1476 0.0334359 -0.00454951 0.0374844 
530 2 46.4147 18.1566 33.1447 -0.0291022 0.0855797 0.0130305 
343 1 59.3435 12.4327 31.086 0.0183482 -0.017686 0.0174614 
518 1 46.7677 18.7735 32.3511 0.00600118 -0.00324501 0.00298794 
355 2 59.0842 13.045 32.0376 -0.0254468 -0.0536353 0.00500473 
535 2 44.2041 25.3007 32.3158 -0.0194534 0.0182796 0.0327825 
231 1 42.9899 11.9257 34.7025 -0.011442 -0.00422628 0.00251544 
529 2 47.2519 20.6885 34.7189 -0.0117346 -0.082979 -0.0320116 
531 2 45.5765 22.6437 35.092 0.0528099 -0.0395311 0.0212169 
517 1 46.6822 21.1029 33.8668 0.0113082 0.0220002 -0.00456511 
519 1 45.522 21.9941 34.0971 -0.00262117 0.00982435 -0.00702599 
514 1 44.4873 24.0964 30.8247 -0.000353773 0.0115091 -0.00316777 
523 1 44.1968 24.2635 32.1562 -0.00155438 0.00966317 0.0154339 
520 1 44.2094 23.4569 33.3067 -0.00620296 -3.82489e-05 -0.00238707 
508 1 45.3814 22.8467 30.5746 -0.00290695 0.0200414 0.00354797 
512 1 44.879 22.2792 32.8891 0.0108363 -0.00890778 -0.00183057 
506 1 45.3225 21.8563 31.6551 0.0181912 -0.00434159 -0.0198444 
505 1 46.4208 20.9512 31.4347 -0.00791354 0.00363931 0.0131735 
511 1 46.8891 20.2798 32.6393 -0.00857805 0.0100199 -0.000296222 
507 1 46.716 20.2069 30.1782 0.0187644 0.00873391 -0.00770082 
532 2 44.5752 23.7142 34.3329 0.0413922 0.0842239 -0.0600975 
536 2 45.1117 26.1069 29.7045 0.0416995 -0.0195673 -0.0368502 
502 2 79.4771 5.43145 -7.95997 -0.0457066 -0.0463656 0.074438 
2 1 61.9851 9.71655 -8.35012 0.0267978 0.029282 0.000787864 
4 1 61.8462 10.8063 -9.16467 -0.0101607 -0.019575 -0.0137795 
6 1 60.901 11.0108 -10.0802 0.00175063 0.021488 -0.0021926 
26 2 60.3293 4.9235 -8.57267 0.0562954 0.0232424 -0.0535413 
16 1 63.9039 10.533 -7.03909 -0.00222313 0.0054007 0.00246472 
8 1 63.1834 9.3031 -7.529 -0.005885 0.0138848 0.00179266 
1 1 61.4642 8.6844 -8.75094 -0.00367995 0.014233 0.00154359 
13 1 62.7713 7.1157 -8.03451 -0.0287724 0.0128455 0.0133766 
7 1 61.3583 7.15295 -8.44982 -0.00436896 -0.018119 -0.00984565 
14 1 60.3543 6.10493 -8.38381 0.00198336 -0.000722846 -0.0113926 
15 1 63.8419 8.09066 -8.0227 0.00227837 -0.0117098 -0.0380852 
25 2 63.2901 6.37086 -8.60518 -0.121196 -0.0286841 0.0145253 
3 1 60.0828 9.05134 -9.36284 0.00671639 0.0149424 -0.0116908 
179 2 75.2548 -9.41529 -0.437315 0.0682984 0.00305102 -0.00636092 
19 1 63.5272 11.857 -7.51063 0.0168523 0.00533886 -0.00280069 
500 2 77.9718 11.4994 -8.63425 0.0487508 0.0215027 -0.0201139 
504 2 77.5302 7.74369 -7.96311 0.101039 -0.0255396 0.0144117 
492 1 78.2223 7.40172 -7.21626 0.0438766 0.0253156 0.00356226 
501 2 81.1135 6.18177 -6.51586 -0.0652433 0.000609467 0.00156038 
490 1 79.1818 6.31047 -7.15229 0.0314864 0.020319 -0.00724266 
498 2 79.2492 4.39341 -3.33732 0.040778 0.0960592 -0.0192556 
489 1 80.1454 5.20585 -3.2226 0.0342356 -0.0328599 -0.0288889 
28 2 64.7253 9.98973 -6.48751 0.087625 -0.0217561 0.0248626 
27 2 64.8606 7.86859 -7.61709 0.0498265 -0.0363913 -0.040203 
503 2 76.7063 9.2731 -4.65566 -0.0513477 0.0807601 -0.0624425 
478 1 77.4013 9.8405 -3.83749 -0.0177048 0.000248421 -0.0134236 
487 1 77.1504 10.7755 -2.77317 0.0114088 0.0281844 -0.0188824 
472 1 78.694 9.24178 -4.11146 0.024717 0.012377 -0.00139623 
488 1 77.5755 10.6014 -8.02718 -0.00809559 -0.00173416 -0.022323 
480 1 78.0246 8.60555 -6.33009 0.0183526 0.0201264 0.0100535 
491 1 77.9853 9.71297 -7.08513 0.015768 -0.00953547 -0.0168713 
499 2 76.1199 10.7192 -2.43485 0.00892877 0.019212 0.0462253 
484 1 78.3896 11.5526 -2.53237 -0.00757341 0.00767714 -0.00772188 
483 1 80.7671 11.3604 -1.72579 -0.0122975 0.00526579 0.0100565 
474 1 79.1162 8.92005 -5.41145 0.00407514 -0.00799559 -0.0207809 
481 1 82.175 10.9498 -1.84942 0.0221743 -0.0169974 -0.00897274 
469 1 81.2369 9.10121 -3.62555 -0.0150772 0.0148435 -0.00638636 
476 1 79.6538 10.7452 -2.61138 0.0300323 -0.0280552 -0.021805 
479 1 80.3222 6.79074 -6.57114 -0.0165354 -0.017851 -0.0376242 
473 1 80.1837 7.97804 -5.69938 -0.00444096 0.0127122 0.00139631 
471 1 81.1969 7.9263 -4.51042 -0.00320078 -0.0189835 0.00245763 
470 1 79.9095 9.62961 -3.324 -0.0113319 0.0115334 -0.00532464 
494 2 84.3049 9.11924 -1.51213 -0.0232655 -0.0044192 -0.0524492 
485 1 82.8624 7.49116 -2.57652 0.00703362 -0.0358062 -0.0292028 
482 1 83.1775 8.73892 -1.95563 -0.0045152 0.0153354 -0.00930344 
477 1 82.0055 6.9281 -3.67353 0.0161968 -0.0139812 -0.0102403 
475 1 82.1991 9.67111 -2.70214 0.00620653 0.00549392 -0.00963411 
486 1 81.0275 5.97539 -3.42361 -0.0357048 0.0171288 -0.0287797 
497 2 83.4207 6.64879 -1.7873 0.0599023 0.0123408 0.0580338 
10 1 62.569 11.7725 -8.44941 0.00805536 0.0128441 0.0071437 
326 1 60.2512 11.698 28.3398 0.00882681 0.0113335 -0.00288851 
69 2 69.3384 9.10575 29.2776 0.0724392 -0.0853277 0.0584393 
43 1 67.8277 7.12006 23.9148 0.0103995 0.00108423 0.00403789 
49 1 67.6485 6.5725 22.6222 0.00659739 0.0134617 0.00606246 
61 2 66.7949 5.90556 22.8078 0.0755291 0.0447253 0.0411499 
51 1 67.7116 7.74823 21.6714 0.0190299 -0.01203 0.00247346 
63 2 67.5979 7.64417 20.6685 -0.0171913 -0.0314444 -0.0296442 
38 1 69.2619 9.14727 23.378 -0.0172314 -0.0183095 -0.00408531 
44 1 68.7134 8.7188 22.0446 0.00258088 0.00865979 0.0045692 
52 1 68.9005 9.54561 20.821 -0.0275832 -0.0224405 0.0248848 
64 2 68.7133 9.15416 19.7971 0.00340401 -0.0446168 -0.0599584 
55 1 69.811 10.5053 21.2024 0.0139447 0.00287907 -0.0100836 
46 1 69.1894 11.2497 22.4025 -0.0344675 -0.0319195 0.0117261 
57 1 68.7152 8.82821 28.5087 -0.0311044 0.01562 0.0091381 
62 2 65.7851 5.90718 24.5045 0.0131408 0.0225201 -0.0321036 
65 2 66.364 5.87641 27.064 -0.0592271 -0.0588633 0.00183169 
67 2 70.9243 10.4302 21.4254 -0.0427971 0.119584 0.0545798 
50 1 66.8558 6.29798 24.8678 -0.00671352 0.0108631 -0.00995221 
40 1 69.1962 10.6206 23.6645 -0.0114844 -0.0227775 0.0151042 
53 1 66.7679 6.6084 26.3867 -0.00323078 0.00766459 -0.00354674 
37 1 68.4729 8.39973 24.4529 -0.0244261 -0.016431 -0.00693636 
45 1 67.7289 7.59696 26.8419 -0.0111765 0.00801459 -0.0277201 
39 1 68.4967 8.34847 25.8696 0.0181082 0.00166317 -0.00952947 
41 1 68.8486 9.79977 26.1289 -0.0413435 -0.0290571 -0.00525642 
47 1 68.7097 10.0639 27.4372 0.0238598 -0.00250019 -0.033138 
58 1 68.9221 11.5116 27.811 0.0130515 0.00155023 0.0178651 
42 1 69.2776 10.8451 25.0833 -0.0373056 -0.0125478 -0.00188059 
54 1 67.8134 7.93548 28.3511 -0.0232287 0.0149503 -0.00198967 
66 2 67.9006 7.22459 29.1603 -0.0501683 0.107035 0.0220337 
325 1 60.2979 11.4647 26.7799 0.0177138 -0.0141835 0.00690243 
70 2 68.9224 11.7311 29.1047 0.00640351 0.106386 0.0930993 
31 2 64.2971 12.5877 -6.99258 0.0966106 0.051068 0.0018497 
20 1 61.8196 13.1668 -8.60232 0.00777687 0.00541316 0.0134738 
32 2 60.7491 13.6381 -8.30897 0.00944428 0.0658435 0.0516272 
23 1 61.8237 13.4606 -10.1748 -0.0092088 -0.0163882 0.00818549 
35 2 61.3974 14.4997 -10.0698 -0.0959349 -0.030923 -0.0205116 
135 2 74.9342 32.5934 10.9552 0.0824575 -0.0294349 0.0365192 
123 1 74.8186 31.5375 11.1429 0.00438903 -0.00930535 0.0248496 
493 2 80.9907 12.4568 -1.59913 0.0443248 0.0539709 -0.00699298 
94 1 60.4956 21.7861 0.919569 -0.00323363 0.030765 -0.0182094 
78 1 62.6466 23.5343 0.145479 0.00528041 -0.00235447 0.00687961 
76 1 63.7394 24.5654 0.340172 0.00243524 0.0043286 0.021959 
103 2 63.1625 27.8774 1.64169 0.10494 -0.0703567 -0.00444123 
110 1 74.6893 29.0081 10.7047 -0.00614097 -0.00028574 -0.00964971 
75 1 64.5772 22.0579 0.964014 -0.000792499 -0.0316488 -0.00203699 
96 1 60.2784 23.095 0.462316 0.00440024 0.0130762 -0.0107706 
93 1 62.5434 20.1276 0.864734 -0.0030136 -0.019442 0.00668728 
90 1 63.6449 19.6371 0.693519 -0.016116 0.0274401 0.010385 
81 1 64.9664 20.7938 0.93869 -0.00214275 0.011791 0.00317602 
102 2 64.1587 18.757 0.326777 -0.0558967 -0.070901 -0.0226886 
73 1 65.6329 23.166 1.20664 -0.032602 0.00225259 0.0136242 
77 1 63.0154 22.4301 0.596101 -0.00367663 0.00790675 0.0418637 
83 1 62.0937 21.3549 0.953145 -0.00478293 0.000917284 0.0022825 
84 1 61.3155 24.0333 -0.0625893 0.00787663 0.00144038 0.0051145 