ITEM: TIMESTEP
800000
ITEM: NUMBER OF ATOMS
576
ITEM: BOX BOUNDS pp pp pp
-1.2000000000000000e+01 8.4000000000000000e+01
-1.2000000000000000e+01 3.6000000000000000e+01
-1.2000000000000000e+01 3.6000000000000000e+01
ITEM: ATOMS id type x y z vx vy vz 
280 2 -2.36207 -11.9349 -11.9808 -0.0312341 -0.0335003 -0.0510583 
220 1 4.62338 -7.74921 5.99248 0.00107445 -0.032735 0.0372511 
226 1 3.53377 -8.68899 5.96476 -0.0256331 0.00732751 0.000862684 
235 1 3.33963 -9.85898 5.04652 0.00122566 0.00591895 0.0105656 
218 1 5.2756 -7.57319 4.64903 -0.0101264 -0.0113327 -0.0143595 
232 1 4.03762 -9.82564 3.77863 -0.0124201 0.0120193 0.0285788 
247 2 2.60431 -10.4888 5.38594 0.0474099 -0.00522195 -0.0747488 
244 2 4.25716 -10.8872 3.17585 -0.028678 0.0320596 -0.101141 
224 1 4.91089 -8.61264 3.70948 0.014102 -0.0179562 -0.0163046 
231 1 5.64836 -8.77798 2.35667 -0.00491226 0.0297009 -0.0107002 
243 2 5.81962 -9.78762 1.78705 0.020802 0.10359 -0.1079 
217 1 6.49732 -6.85581 4.4129 -0.0167019 0.0109055 0.0131866 
229 1 6.94905 -8.37874 2.19491 -0.00755885 -0.00290633 0.00747767 
223 1 7.12918 -7.05875 3.14478 -0.0142558 0.0218998 0.010714 
241 2 7.65642 -8.81647 1.29796 -0.0232747 0.0452891 0.0183671 
246 2 7.62061 -2.56431 5.62989 0.0275973 0.0667625 -0.072844 
219 1 6.44402 -5.64367 5.41792 0.022624 -0.00316492 0.000298954 
230 1 8.07724 -5.95681 3.34853 0.00218013 -0.0118742 -0.00647872 
242 2 9.2469 -5.92452 2.89624 -0.0258457 0.0537963 -0.101015 
245 2 9.19471 -4.28662 4.01789 -0.0271592 0.0151614 -0.0378072 
225 1 7.56567 -4.73151 5.3479 -0.00475886 -0.00175878 -0.00667977 
233 1 8.28011 -4.84994 4.178 -0.0169301 -0.0042402 0.00251524 
327 1 9.96533 11.5499 5.31296 -0.00033474 0.0070274 -0.00137543 
336 1 10.251 11.6553 1.50969 -0.00651386 0.0215302 0.00649541 
330 1 9.93547 10.8309 2.85538 0.0174526 0.00962869 -0.0168749 
329 1 9.31003 11.6664 3.9588 -0.00123527 -0.0288824 0.000666084 
328 1 11.1732 9.95259 2.96376 0.0286357 -0.000420267 -0.00294558 
326 1 11.4906 9.88744 4.32399 0.00259173 0.0010392 0.00507991 
347 1 11.2764 11.352 0.590036 -0.00495592 0.0187861 -0.0153163 
325 1 11.0071 10.5613 5.47935 0.00927562 0.00421056 0.0247737 
390 2 -11.88 -9.80487 10.5478 -0.0729177 -0.0205557 0.00396037 
503 2 -8.58706 -6.09762 10.172 -0.0657036 -0.0259816 -7.21987e-05 
396 2 -11.1093 -11.0514 8.56816 -0.0432703 -0.022337 -0.00112693 
487 1 -10.0717 -6.04141 11.7402 -0.0107516 -0.00268632 -0.00301112 
251 2 2.53385 -7.89705 9.1663 0.0478167 0.0423236 -0.0448916 
236 1 2.94775 -7.59697 8.06551 -0.00410771 0.0133306 0.0278406 
239 1 2.29891 -8.27888 6.96892 0.00651977 -0.0142801 0.00362744 
228 1 4.14386 -6.65934 8.05816 0.0346786 0.026402 0.0150705 
222 1 4.85196 -6.59773 6.88008 0.0101632 -0.000761033 0.00763067 
252 2 4.15761 -6.32209 10.032 0.00989236 -0.0695004 -0.0652303 
240 1 4.79565 -6.11302 9.1626 0.00194951 0.0214287 -0.00225866 
478 1 -8.76413 -5.85818 11.3118 -0.0141129 -0.00959147 -0.0119773 
499 2 -10.656 -5.40076 10.998 -0.0291803 0.0803909 -0.0723024 
238 1 5.83335 -5.16499 9.15004 0.0277873 -0.00408402 0.0233367 
234 1 7.50882 -3.53581 6.12733 0.00718646 0.00537452 -0.0147587 
249 2 6.53975 -2.80121 7.63133 -0.039688 0.0572064 0.0460477 
237 1 6.95775 -3.6857 7.4632 -0.00396191 0.0109067 0.0177605 
221 1 6.02978 -5.97601 6.74595 0.0162314 0.0314509 -0.00644376 
357 2 6.32213 -4.74236 10.0657 -0.0122829 0.0887138 0.00595873 
227 1 6.48881 -4.99301 7.82368 -0.0149047 -0.0238942 0.00277094 
331 1 11.7079 10.5775 6.64538 -0.00233424 -0.0088172 -0.00907779 
338 1 11.222 11.3372 7.74012 -0.0248401 -0.0217035 0.00975898 
350 2 11.8491 11.1868 8.64062 -0.0824361 0.0431864 -0.0152047 
156 1 -11.7011 -10.1766 12.9408 -0.00262891 0.00574133 0.00168783 
162 1 -11.4789 -7.10658 16.1319 -0.00354629 0.0106306 -0.00753347 
165 1 -10.3267 -7.55114 15.8011 -0.00721935 -0.0101096 0.00335602 
155 1 -10.9042 -7.41225 14.1095 -0.00800466 0.011889 0.0111368 
174 2 -9.30077 -7.4948 16.4303 -0.015289 0.0573845 -0.0675593 
166 1 -9.9216 -8.40181 13.1042 0.0068086 0.00144414 0.032746 
168 1 -10.8625 -9.3859 13.0304 0.0113283 -0.0321036 0.0231371 
178 2 -8.85772 -8.48141 13.3292 -0.12731 0.0125641 0.0200633 
473 1 -6.30104 -6.3626 12.6458 0.0103102 0.0289627 0.0224031 
484 1 -10.4068 -6.29073 13.2293 -0.00759247 0.00593409 -0.00182443 
180 2 -11.6689 -10.9129 12.1679 0.0505075 0.0356654 -0.0630846 
492 1 -3.22502 -6.41229 14.7889 0.0248395 0.00313566 0.0211804 
490 1 -4.10713 -6.76834 14.1013 0.00458665 0.0121608 -0.0278413 
489 1 -2.4992 -6.37315 15.7245 0.00558406 0.0107493 0.0128829 
480 1 -5.24434 -6.67612 13.2169 -0.0142942 -9.34602e-05 -0.0093113 
485 1 -7.60721 -1.28769 16.5549 0.0162283 0.0191997 -0.0282853 
471 1 -8.2506 -3.4627 15.1826 0.0243964 -0.0175907 -0.0250042 
472 1 -7.53753 -5.98626 12.0543 0.0129388 0.00760034 -0.00542115 
479 1 -7.57565 -4.68995 14.5805 -0.00510216 0.00240255 0.00459711 
470 1 -8.18412 -5.5173 13.5403 0.00799406 -0.00426907 -0.00276214 
476 1 -9.54805 -4.97425 13.4678 0.0197097 0.0048999 -0.00852994 
497 2 -6.06659 -5.93414 15.0876 -0.0401766 -0.00520204 -0.050755 
474 1 -6.41785 -5.07569 15.4747 0.0249993 -0.00573488 -0.0113142 
481 1 -10.4254 -4.07585 14.449 0.00460951 -0.018571 0.00623453 
469 1 -9.48949 -2.78233 14.9902 0.00646613 -0.00681927 0.0024071 
477 1 -7.39496 -2.67544 16.1722 0.0236902 -0.0136654 -0.0172142 
498 2 -6.7704 -0.476113 16.7185 -0.0140765 -0.0455544 -0.0299716 
488 1 -6.14224 -3.32899 16.7495 -0.00786043 0.00327242 0.00274125 
475 1 -9.90577 -1.83543 15.9806 0.0095897 -0.00943261 0.00439456 
482 1 -8.9465 -0.974403 16.7525 0.0269578 -0.0210745 -0.0064848 
108 2 -10.9353 -1.92256 16.2155 0.0114241 -0.0676901 0.0712188 
483 1 -11.571 -4.13162 14.8124 0.0114173 0.01046 -0.00672173 
486 1 -1.89424 -5.27546 16.2036 -0.0186088 0.00546162 -0.00322509 
502 2 -1.99287 -4.33105 16.3958 0.0105021 0.00781045 -0.0716789 
491 1 -5.53329 -3.96492 15.5927 0.000105795 0.000801039 -0.00986676 
500 2 -4.3828 -4.05114 15.5102 0.0950725 0.00709547 0.108024 
501 2 -5.54914 -3.37517 17.6119 -0.00957947 -0.0537341 -0.0656275 
494 2 -9.30468 0.0157424 17.251 -0.0710553 -0.023484 0.00733427 
423 2 3.64272 -7.27929 28.5026 0.135876 -0.0585011 -0.0483424 
411 1 5.52988 -6.57357 27.6206 0.0116572 0.0204086 -0.0397602 
427 2 5.57152 -7.03305 26.6589 -0.0604564 -0.0423852 0.0506818 
409 1 4.33811 -6.32809 28.5941 0.000676713 0.00959708 -0.0112167 
403 1 3.96039 -5.03771 29.3312 0.0132282 -0.00233318 0.00098857 
29 2 5.41591 -0.597916 28.1782 0.0287365 0.064812 -0.0429671 
14 1 4.76011 -1.46574 28.5598 -0.00622487 -0.0233186 -0.018175 
397 1 4.94139 -4.1222 29.0245 0.0322285 -0.000300182 -0.0209888 
17 1 4.79057 -2.66094 28.8318 0.0218895 -0.0144308 -0.00567889 
424 2 8.336 -5.51022 26.4856 0.0321659 0.0089709 -0.0697126 
404 1 6.56398 -5.79335 28.323 0.0145388 -0.00421416 0.0190177 
398 1 6.36616 -4.652 29.0781 -4.25675e-05 -0.00700916 0.000238338 
412 1 7.98545 -5.30244 27.5567 0.00485992 -0.0141215 -0.0043679 
419 1 10.5512 -3.5085 29.3551 -0.00709998 -0.0208823 -0.0191199 
431 2 10.7777 -3.78305 27.4927 0.032989 -0.010886 -0.0524076 
416 1 9.89233 -3.84733 28.2155 0.0184207 0.00947082 0.0118637 
406 1 8.48311 -4.32358 28.3512 0.00533024 0.0158875 -0.0153833 
415 1 7.70657 -3.94581 29.5042 -0.0107424 0.00343285 0.00878907 
418 1 2.592 0.888849 29.8162 -0.0280025 -0.0301376 0.030937 
420 1 0.814585 2.13321 28.279 -0.00845586 0.00642869 -0.0287751 
430 2 0.733807 3.11075 27.8691 0.00933437 -0.0568771 -0.0855837 
408 1 1.66457 1.49922 29.1839 0.0257429 0.0166079 -0.00664898 
136 2 0.494151 1.51683 27.3528 -0.0467711 -0.0683458 0.0822693 
410 1 4.89619 -6.64363 31.4766 -0.0189022 0.0201388 -0.00330309 
425 2 5.11439 -7.7286 31.5505 -0.0175849 -0.0202198 -0.198615 
417 1 5.53659 -0.231717 31.8976 -0.00112499 0.0101608 0.0122177 
422 2 4.95007 -4.68466 31.1175 0.144687 0.0627265 0.0548465 
429 2 5.48576 -0.219746 33.8272 0.00339398 0.0208954 0.0446021 
413 1 4.1985 -5.64686 30.9622 0.0140881 0.019594 -0.0192834 
407 1 6.25053 -0.432641 33.0366 0.0117604 0.00496411 -0.00887881 
426 2 6.49165 -2.67683 30.5242 0.0408343 -0.0769749 -0.0760586 
428 2 11.0909 -3.36966 30.1688 0.0098132 0.0809893 -0.0718521 
400 1 7.69513 -2.88085 30.402 0.0164132 0.00624007 -0.00958173 
402 1 9.01725 -2.25639 30.9207 0.0081648 0.00132733 0.00898781 
401 1 8.24615 -1.42077 31.9769 0.0249688 -0.00223478 -0.0202223 
399 1 7.11853 -1.60775 32.8888 0.00703795 -0.011356 0.0230858 
250 2 6.89388 -2.54905 33.596 0.040081 0.00491861 0.0157468 
414 1 3.23695 0.52348 31.0053 -0.0160866 0.00865152 0.012561 
405 1 4.60253 0.329997 31.0411 -0.0263677 -0.0134582 -0.0172479 
432 2 2.4978 0.205262 31.8618 0.0216641 -0.0363492 -0.0732916 
272 1 -6.37491 34.8564 -9.58045 0.0181961 -0.0262433 -0.00592121 
275 1 -7.62244 34.2249 -10.1235 0.0393012 0.0134616 -0.00792126 
264 1 -7.87016 32.9747 -11.0724 0.000452157 -0.0164655 -0.00246306 
258 1 -6.68634 32.5456 -11.6815 -0.0216668 0.0044014 -0.00206281 
276 1 -9.12498 32.207 -11.2286 0.00356212 -0.00820645 -0.0046498 
288 2 -9.75501 32.1025 -10.5166 0.0203374 0.0678047 0.0379894 
274 1 -9.08557 30.932 -11.957 0.0107586 -0.0175012 0.0151466 
262 1 -5.21247 34.5375 -10.5565 0.00879427 -0.0102262 -0.0239707 
256 1 -5.55387 33.4927 -11.7414 -0.0087362 -0.00438395 -0.0191863 
271 1 -3.84515 35.2805 -10.4668 0.011789 0.0121254 0.00217697 
268 1 -3.0302 35.1492 -11.6082 -0.00166295 -0.00544791 0.0128722 
359 2 11.27 12.1137 -0.261935 -0.0059477 -0.0077131 -0.00141695 
342 1 8.32776 13.0467 5.90076 -0.00517729 -0.01759 -0.0198441 
216 2 7.49806 14.6066 4.86575 -0.0139758 0.00694206 0.0568838 
360 2 9.35869 13.1614 0.131767 0.00813151 -0.061836 -0.0483909 
358 2 7.41059 13.0631 1.71325 -0.0716553 -0.0965619 0.0504961 
348 1 9.11478 12.4813 1.00895 0.00834749 0.00163103 -0.0058945 
346 1 8.43887 12.8952 2.23371 -0.000294064 -0.00483318 0.00563222 
335 1 8.58928 12.8857 3.65305 0.00419112 -0.0283214 0.00510387 
345 1 7.95187 13.73 4.77583 -0.0146897 -0.007561 0.0101625 
212 2 -0.738479 22.989 4.79357 0.0247989 0.0129508 0.012333 
211 2 -2.18968 23.0391 5.40723 0.0373869 0.00984912 -0.0465727 
200 1 -0.259689 23.9773 5.18944 -0.0047549 -0.0180517 0.0138849 
199 1 -2.76545 23.9125 5.45819 0.0166528 -0.00977275 0.00408898 
533 2 4.14851 20.5401 4.58985 -0.0331867 -0.0839631 -0.0926626 
513 1 4.7551 21.2597 5.02617 0.000905118 -0.00492567 0.00626414 
534 2 4.34256 22.6342 2.7104 -0.00688576 0.0958323 -0.167696 
525 1 4.76521 23.3809 3.53987 -0.0227428 0.014513 0.00310962 
522 1 4.74983 22.7764 4.86103 0.0333101 -0.0143738 -0.000153488 
507 1 5.808 23.6809 5.68134 0.0140578 0.0278274 0.000343188 
190 1 -1.52768 24.7343 5.73486 -0.0065146 0.022152 -0.000446202 
196 1 -3.65074 24.9318 4.99088 -0.0167404 0.0210281 0.00265974 
188 1 -3.67398 26.1389 5.8336 0.00364408 0.00609415 0.0126284 
208 2 -4.69441 24.6323 5.09102 -0.100728 -0.127559 -0.0398949 
215 2 1.94962 24.1155 4.13144 0.0704174 0.047754 0.0614619 
515 1 5.3447 24.7102 3.63377 0.00247687 0.00335298 0.000203881 
509 1 5.63897 25.0101 4.94567 0.0209354 0.00280269 -0.0204097 
192 1 0.909492 26.0015 5.17086 0.00832533 -0.0121032 0.00637896 
538 2 4.92599 25.7897 1.69672 0.0527796 -0.018843 0.0706383 
526 1 5.61772 25.7925 2.54316 -0.000122899 0.0081424 0.0250985 
203 1 0.934164 24.5392 4.86133 0.0133766 -0.011131 0.0112901 
204 1 1.9875 26.5131 4.44519 0.00302181 0.00373278 -0.00509466 
202 1 2.5535 27.9695 5.00647 -0.00142438 0.012762 -0.0311041 
191 1 1.71998 28.3063 5.95333 0.00853847 -0.0154231 -0.04 
214 2 3.48622 28.6148 4.89163 -0.190398 -0.0303735 0.0118786 
528 1 6.09835 26.7634 3.32835 -0.00399405 0.0266922 -0.0335889 
510 1 6.63431 25.9196 5.49337 -0.025539 0.00355929 0.0115721 
527 1 6.19293 28.3357 5.38136 -0.00934327 -0.0155537 0.0220274 
516 1 6.52379 27.1726 4.53262 -0.00770889 0.00494052 0.00332428 
380 1 -11.9028 35.4171 4.65415 -0.0218467 -0.015034 0.0039399 
392 2 -11.0762 35.1509 4.00764 -0.0795408 -0.0730093 -0.010487 
383 1 -11.7087 35.8126 5.93725 -0.00776837 -0.0124757 0.00388766 
353 2 9.94437 12.6061 8.47013 -0.0763881 -0.0903677 -0.0131476 
333 1 9.46454 12.3281 6.25837 -0.00753084 0.0104106 -0.0083909 
354 2 7.75984 13.0618 6.73011 -0.0612786 -0.00236098 -0.0536572 
341 1 10.1692 12.0928 7.44659 -0.0148422 -0.0219993 0.00252729 
521 1 5.50729 20.9883 6.26501 0.0338612 -0.014376 0.0176927 
505 1 6.22055 23.4188 7.10384 0.0310993 0.0128039 0.0169311 
530 2 6.65803 20.1673 7.99309 0.00590481 -0.0515891 0.00330594 
511 1 6.91255 22.2455 7.6854 0.0153275 0.00924968 0.0111093 
518 1 6.03337 20.9762 7.55382 0.0251791 -0.0141676 -0.012768 
519 1 7.44007 23.5373 9.46288 -0.0230758 0.0157097 0.0103451 
517 1 7.79844 22.2644 8.90533 0.0223184 -0.00849146 0.000358666 
529 2 7.95861 21.2988 9.46683 0.00807913 -0.0497317 0.0544607 
531 2 7.42297 23.8478 10.5085 -0.0195481 -0.0237419 -0.0010191 
209 2 -1.95056 29.0545 10.3886 0.0749268 -0.0394088 0.0634772 
207 2 -5.98892 26.1042 6.51859 0.0174506 -0.0159061 0.0184583 
182 1 -2.4653 26.9213 6.14051 0.0227758 -0.00285871 -0.014766 
184 1 -1.30821 26.0365 6.31742 -0.00178083 -0.0223394 0.0159268 
195 1 -4.93967 26.5643 6.30243 -0.0032809 -0.0236203 0.0122036 
186 1 -0.0264532 26.8239 6.08823 0.00603729 0.010203 -0.0128671 
206 2 -4.05914 28.3574 9.58198 -0.0680082 0.0602965 -0.0531679 
197 1 -1.95402 29.2528 9.19441 -0.00324034 0.00259216 -0.000644529 
193 1 -4.70582 28.0332 6.78346 0.0173017 -0.00862824 0.0222189 
205 2 -5.26573 28.6137 7.43972 0.0470047 0.0653889 0.00339308 
187 1 -3.50417 28.2241 7.61614 0.00646525 -0.0150809 0.0183299 
189 1 -0.724237 29.7118 8.31595 -0.00487664 -0.0173814 0.0118414 
183 1 -0.954942 28.6945 7.08409 0.00086447 0.00148493 -0.0174893 
181 1 -2.32335 28.3124 6.68032 0.0325301 0.0176264 -0.0146581 
194 1 -3.24519 28.6111 9.02123 -0.0276123 -0.00135413 0.00574016 
133 2 0.937965 28.5779 9.6166 0.0364416 0.0163519 0.0198211 
185 1 0.116251 28.0796 6.45091 0.00517727 -0.00103923 0.012049 
198 1 0.59707 29.6537 9.34222 -0.000397491 0.0132782 0.00467663 
536 2 6.39298 29.7099 6.06213 -0.0222506 0.0156913 0.118318 
508 1 7.2631 25.8807 6.82043 -0.00467664 -0.00810537 -0.00424701 
524 1 6.93972 28.2872 6.6093 0.0180535 0.00192251 0.0155856 
506 1 6.95307 24.5674 7.54819 -0.0221264 0.00888805 -0.00433309 
512 1 7.43368 24.8327 8.92964 0.0109516 -0.00320124 -0.0191783 
523 1 7.36553 27.5206 8.93691 0.0324177 0.0151195 0.0130358 
514 1 7.42246 27.2515 7.48123 -0.01602 0.0125128 0.00243331 
532 2 8.01489 25.9691 10.5999 -0.0803574 -0.0287901 0.00497359 
535 2 7.36132 28.4575 9.39982 0.128936 0.00434502 -0.0386866 
520 1 7.64702 26.3048 9.72623 -0.0223979 0.028651 0.0123344 
395 2 -10.6742 35.1808 6.06061 0.101248 -0.110182 0.0130539 
213 2 2.70837 30.1484 9.13016 0.103659 -0.00242875 -0.0849831 
201 1 1.75081 30.187 9.13977 -0.0075168 0.0204696 0.0274925 
99 2 7.8592 18.6245 15.5653 0.118997 0.0107438 0.0465115 
85 1 6.94529 18.187 16.0161 0.0169001 -0.00296699 0.0231509 
87 1 6.54586 18.7679 17.3446 -0.00876225 -0.00681746 -0.0383715 
100 2 5.79871 18.7246 19.1511 -0.0429372 0.0445685 -0.102686 
80 1 6.13789 19.0208 18.2367 -0.024558 -0.00752442 -0.0199083 
285 2 -7.94426 28.4497 33.6607 0.0595454 0.0926737 0.0970203 
270 1 -7.09637 29.8807 33.3087 0.00872762 0.0248822 -0.00231374 
273 1 -7.67889 29.4802 34.2418 0.0129106 -0.00881024 0.00687696 
263 1 -7.74916 30.4787 35.5178 0.000310464 0.0124443 -0.0126262 
286 2 -9.86181 30.2093 35.5964 -0.0119884 -0.0481565 0.0555112 
257 1 -6.67078 31.4729 35.4373 0.000175396 0.0209086 -0.000953409 
261 1 -6.3851 31.0218 32.9875 0.00466154 -0.00555984 -0.0128305 
255 1 -6.02183 31.7874 34.152 0.0120428 0.0124973 -0.0131528 
254 1 -4.45741 33.4178 35.3385 0.00375922 -0.00637447 -0.0142924 
260 1 -3.21184 34.1929 35.2854 0.0151931 0.0115781 -0.0086733 
281 2 -5.44364 30.5175 30.7982 -0.0353696 0.0381199 -0.0401296 
279 2 -1.48395 34.8051 34.5044 0.013693 0.0666798 0.0341454 
267 1 -2.23032 34.1718 34.0625 -0.00765341 -0.0217981 -0.0115608 
253 1 -5.15833 32.9435 33.8833 -0.0136151 0.00483163 0.00292623 
266 1 -4.49189 31.8705 32.0788 -0.034201 0.00680944 0.0276623 
269 1 -5.62501 31.2028 31.6478 -0.0292636 0.0149218 0.0013411 
259 1 -4.22268 32.8054 32.9804 -0.0148129 0.0140378 -0.00577818 
277 2 -2.29032 33.7784 31.8268 -0.0238325 -0.0190097 0.0260444 
265 1 -2.75839 33.6382 32.8034 -0.0109648 -0.0330441 0.0149779 
103 2 29.067 9.86558 -6.14116 0.0342961 0.00517186 0.00531122 
558 1 16.2272 -11.8866 -1.98674 -0.00633315 0.000910879 -0.00394829 
570 2 15.2282 -11.2579 -1.78876 0.0015823 0.107117 -0.00871085 
561 1 17.7438 -11.8974 -1.77421 -0.00728488 -0.00444325 0.0207793 
573 2 17.8963 -11.0383 -1.1439 -0.0106125 -0.0171424 0.0404673 
177 2 20.5162 11.6536 -1.8445 -0.0839353 0.0715524 -0.0142587 
88 1 30.1912 10.2764 -5.87938 0.00577369 -0.00131609 0.0135007 
91 1 30.8161 10.8287 -4.81823 0.00774846 0.00693629 -0.00834148 
104 2 30.965 11.4211 -1.73593 0.048759 -0.066039 -0.0190664 
82 1 30.8811 11.9598 -4.13699 -0.00141462 0.00196812 -0.00564246 
340 1 13.7816 8.48304 3.702 0.0124676 -0.00597289 -0.0195997 
332 1 12.8679 9.50482 4.48491 0.015605 -0.0328501 0.0188489 
344 1 12.2859 10.5138 0.739654 -0.00363229 0.00172649 0.00157474 
339 1 13.3787 8.96675 5.81002 0.00523355 -0.0186684 -0.000995333 
356 2 13.14 10.0521 0.0976791 -0.00837803 -0.015269 -0.0192184 
343 1 13.77 9.05588 2.43256 0.0281498 0.0130835 0.0167432 
334 1 12.3343 9.62884 1.94172 0.00740102 0.017768 -0.0286618 
466 2 18.0508 -5.95423 11.7577 -0.0107254 -0.0496769 -0.0347927 
351 2 13.9389 7.88767 6.10899 0.0207789 0.0418198 0.0393816 
349 2 12.6424 9.04227 7.90316 0.0191196 -0.0927802 -0.0301089 
337 1 12.6714 9.47819 6.91784 0.00781522 -0.00744675 0.0163751 
105 2 17.2201 -5.61664 12.0805 0.0526498 -0.0704823 0.155826 
287 2 30.2893 -7.48843 29.0524 -0.0802985 0.0280396 0.0444943 
33 2 30.6353 -7.73117 28.9591 0.0170972 -0.0657294 -0.028213 
97 2 33.7311 13.9141 -8.09698 -0.0192997 -0.045535 0.0406282 
101 2 32.5836 17.8914 -8.01877 0.0314025 0.00274143 0.0585245 
89 1 32.6502 17.142 -7.166 0.0101559 -0.00225079 -0.00157924 
86 1 33.262 15.9662 -7.69499 0.0146981 0.00450096 -0.00909872 
81 1 31.2246 16.7395 -6.90729 -0.00521771 -0.0173735 0.00503779 
79 1 33.1481 14.6113 -7.66566 -0.00618888 0.0193034 -0.0197428 
73 1 32.1557 14.3993 -6.37938 -0.0174406 -0.0264658 -0.00267481 
355 2 32.0036 12.4666 -6.9148 -0.0543695 -0.0814061 0.00770719 
75 1 31.3413 15.5042 -6.03945 0.0316034 -0.00142096 0.0029861 
74 1 31.7883 13.0319 -6.10265 -0.0103493 -0.00359428 0.0112894 
567 2 14.7773 30.574 -6.60127 -0.0361661 0.00589896 0.034242 
537 2 19.9028 32.8861 -9.43452 -0.0124716 -0.0474262 0.0369392 
540 2 20.4575 32.3736 -9.52025 0.00850522 0.0306877 0.0167099 
90 1 30.6851 17.736 -5.89975 -0.0189234 0.0204297 0.0112763 
77 1 31.1573 15.4732 -4.74442 0.0080029 0.00450248 -0.0147359 
76 1 31.2742 13.1986 -4.67424 -0.0023213 -0.00043029 -0.00874392 
78 1 31.067 14.2738 -3.97344 -0.00394675 -0.0182475 -0.00198315 
84 1 31.0685 14.438 -2.48439 -0.0142974 -0.0180174 -0.000405004 
95 1 31.5717 13.2785 -1.65312 -0.0144808 -0.00831477 -0.0215635 
96 1 30.8942 15.642 -1.71146 0.00266939 0.0103775 0.00480679 
83 1 31.0312 16.8545 -3.97396 -0.0170886 0.0237556 0.0117589 
106 2 30.3312 15.1329 -0.910853 -0.000767799 -0.0211601 -0.0349599 
94 1 30.8997 16.9444 -2.43371 0.00764527 0.00146049 -0.00413663 
107 2 31.3577 13.1168 -0.551792 -0.0841752 -0.0514614 0.0124408 
92 1 31.2473 12.1174 -2.54354 -0.0262512 -0.0133382 -0.00955477 
102 2 31.601 18.8735 -4.14081 0.0734 0.0553212 -0.0491855 
93 1 31.533 18.0049 -4.7306 -0.0156495 0.00500473 0.0118549 
568 2 16.7898 28.9677 -5.69807 -0.0584597 0.0119539 0.000538244 
556 1 16.861 29.656 -4.91698 0.0158132 0.00137667 -0.00462423 
559 1 17.7872 29.5789 -3.87735 0.011215 0.00411029 -0.0169267 
571 2 18.4037 28.6755 -3.84194 0.00902451 0.0212254 -0.0100799 
572 2 21.0332 28.6103 -0.25743 -0.0641733 -0.04356 0.0435022 
563 1 20.8397 29.437 -0.922618 0.00841654 -0.00423735 -0.0263681 
566 2 12.51 33.7772 -2.9162 0.0191256 -0.0160413 0.0497382 
554 1 14.3484 34.5883 -2.79325 0.0105216 -0.00328334 -0.0129341 
557 1 13.486 33.7073 -3.38889 0.00705443 0.00493187 0.0146919 
548 1 14.5102 31.1187 -5.61699 0.0143096 0.0100132 -0.0290947 
553 1 13.4685 31.9573 -4.94239 -0.0284287 -0.0122685 -0.0167281 
565 2 12.3136 31.9797 -5.0769 -0.0158311 -0.0424932 0.0185537 
555 1 15.9235 30.834 -4.89902 -0.00650302 0.0100088 0.0318404 
547 1 14.4058 32.8928 -4.33445 -0.00900634 0.000222471 0.00884281 
541 1 15.8512 32.9752 -4.25456 -0.0143531 0.00537256 0.0332851 
542 1 16.8037 31.8807 -4.30794 0.0248189 -0.032293 -0.0214484 
549 1 15.4006 35.1829 -2.66602 -0.0201113 -0.0219165 0.00219705 
543 1 16.3979 34.4085 -3.68075 0.00206518 -0.0157666 -0.00486106 
569 2 16.3701 34.6504 -4.7952 -0.1049 0.048573 0.00755295 
545 1 17.8646 34.343 -3.36275 0.020997 0.0136343 -0.0068667 
544 1 18.2065 31.9085 -3.93096 0.0302932 0.00637018 -0.00570541 
551 1 18.2238 35.0009 -2.16475 0.000555055 2.55156e-05 0.0180885 
552 1 20.1893 30.165 -1.85549 -0.00672046 0.00788912 0.00133819 
421 2 22.055 34.6916 -2.96814 0.084947 0.00583355 0.0263422 
550 1 18.4895 30.6772 -3.72344 -0.00263899 0.0228068 0.00307984 
546 1 18.7843 33.1629 -3.38618 -0.0257661 0.0144098 0.00749723 
564 1 20.2456 33.5787 -3.47358 0.0197459 -0.00718443 -0.00337864 
560 1 19.5339 30.8488 -2.60346 -0.0224535 -0.0107696 -0.0132788 
576 2 21.9506 32.6779 -2.66876 0.00744219 -0.109652 -0.0479828 
562 1 21.601 33.8657 -3.53978 -0.0110629 0.00205146 -0.0235961 
385 2 22.5939 33.8822 -4.51781 0.00516765 0.00864402 -0.0227276 
284 2 28.8316 31.1475 7.61647 0.00303383 -0.123845 -0.0846148 
210 2 28.5831 31.5017 7.96063 0.0546882 0.00388078 0.0221767 
575 2 24.4414 30.0544 16.5765 -0.0912565 0.0901489 0.0116833 
248 2 19.7553 23.1366 21.9316 0.103737 0.0110831 -0.0222415 
176 2 19.5338 23.8333 22.3162 0.0702126 0.0111705 -0.015905 
282 2 31.9093 22.6296 33.7826 0.0763627 0.0310975 0.101222 
135 2 32.8266 23.1899 33.5868 0.0300619 0.00758354 -0.0550539 
504 2 19.0872 35.3662 35.7421 -0.0130735 0.0241432 0.0523272 
71 2 18.2802 35.6759 35.5512 -0.0240137 0.0296073 -0.0536146 
278 2 39.2654 -11.7039 -2.61403 0.0557552 -0.00448337 0.103198 
539 2 59.5401 -0.759362 8.93514 -0.0411696 0.0830988 -0.0570269 
120 1 46.2492 -10.0454 29.1483 -0.000749793 -0.00311626 0.0396321 
132 1 45.7698 -10.2057 27.5493 -0.0350769 -0.0166442 -0.0151139 
130 1 46.254 -9.63927 26.4552 -0.00193329 0.00115785 -0.00783461 
114 1 47.5337 -9.68336 29.6497 -0.0103882 0.0113092 0.00611885 
119 1 47.8196 -9.13512 27.2151 -0.0148141 0.0029616 -0.0290938 
142 2 47.3027 -8.27928 26.7089 -0.0940468 0.069661 -0.0104691 
143 2 45.0878 -11.9306 29.7084 0.0395388 -0.128839 -0.0822875 
131 1 45.8649 -11.2174 29.8471 0.0236786 0.00345426 0.00164348 
113 1 48.4783 -9.07196 28.534 -0.0130012 -0.00666102 -0.0122525 
129 1 48.8371 -9.24366 26.1177 -0.0384253 -0.0296172 0.0209125 
141 2 48.2584 -8.83609 25.2562 -0.00846704 -0.0574305 -0.0253275 
111 1 49.7048 -8.56382 28.8532 0.019418 0.00855056 0.0044414 
117 1 50.7089 -8.85258 27.7688 -0.00515407 0.0271826 0.0217906 
138 2 51.2483 -9.31103 25.7526 -0.0743881 -0.0831119 -0.0909418 
126 1 50.3513 -9.15966 26.4037 -0.0237245 0.0436998 -0.0168767 
137 2 52.3044 -9.77037 26.9632 0.00736854 -0.0504681 0.0685563 
125 1 52.1972 -8.75345 27.7218 -0.00952253 -0.00713526 -0.00521857 
122 1 52.6843 -8.64692 29.1285 0.012627 -0.0129362 0.00446778 
134 2 53.1311 -9.58759 29.3432 -0.0244854 -0.0481817 -0.0436675 
496 2 47.383 -10.5897 33.8984 -0.0146171 0.0903795 0.0410127 
128 1 46.4836 -11.6138 30.9548 -0.0156634 0.00686431 -0.00936688 
118 1 47.7537 -10.9069 31.6213 -0.0133358 0.00862119 0.00370409 
127 1 47.7958 -10.2363 32.9172 0.00764148 0.0160556 0.0115044 
139 2 49.3868 -10.5973 34.2756 -0.0116523 0.00274997 0.0053422 
121 1 52.2048 -8.727 31.6581 -0.00214971 0.00513862 0.00132426 
112 1 48.2407 -9.95238 30.8136 -0.0106265 0.00581671 -0.00212411 
110 1 49.5744 -9.15464 31.1887 0.028664 -0.0108421 0.0024364 
123 1 51.6364 -9.49244 32.7757 -0.000194998 -0.00711765 -0.0261382 
116 1 50.1175 -9.23874 32.5382 -0.00905659 0.0269359 -0.0198859 
124 1 49.1107 -9.78994 33.5039 -0.0353878 -0.0102343 0.00702408 
109 1 50.2718 -8.42228 30.1063 -0.0204339 0.00252174 -0.0149449 
115 1 51.742 -8.32696 30.296 -0.0329502 -0.0130279 0.010758 
67 2 53.6448 25.6231 -6.33561 -0.0446634 -0.0870634 -0.0203382 
59 1 57.5658 28.1643 -6.34319 -0.00253658 -0.00499198 0.00934564 
56 1 57.3831 29.5962 -6.29496 -0.010522 0.0191191 -0.00169641 
72 2 58.3679 30.5106 -6.64659 0.0813857 -0.00247025 0.00352364 
54 1 55.4268 32.9103 -7.08217 0.00294784 0.00889316 -0.00205064 
48 1 56.8053 31.008 -6.43705 0.013716 -0.0116735 -0.00292989 
60 1 56.4642 31.9329 -7.31409 -0.000100877 -0.0195917 0.0143285 
70 2 57.0101 32.0947 -8.26392 0.0661311 0.0600914 0.088724 
69 2 55.0979 33.5365 -8.01922 -0.0874013 0.069163 0.0365987 
49 1 52.2982 28.3157 -3.08515 -0.00690038 -0.00720684 0.0234448 
61 2 51.3419 27.7183 -2.72742 -0.048044 0.0342031 0.0123058 
43 1 52.5424 29.6037 -2.48472 0.00523234 -0.00913393 0.0089234 
44 1 53.2136 27.8601 -4.0064 0.00348571 0.0382337 -0.00377291 
63 2 52.2267 26.5374 -5.63627 0.0195964 0.0587047 -0.0443571 
51 1 53.0876 26.7785 -5.00423 -0.0168906 0.00555081 -0.0120188 
68 2 58.4259 27.4891 -5.91122 -0.0562956 -0.0300937 0.0409666 
55 1 55.5304 26.7984 -5.45091 0.0101011 -0.000669578 0.0194565 
46 1 56.0889 28.0748 -5.73111 -0.00869036 -0.0115917 0.00859926 
40 1 55.4585 29.3486 -4.83881 0.0212529 -0.0354055 0.00177241 
52 1 54.2593 25.9819 -5.50535 0.00382231 -0.0175554 0.00588358 
38 1 54.1432 29.1575 -4.20805 -0.0100245 0.0116051 -0.0138475 
283 2 39.0544 35.6605 -1.97065 -0.0133731 0.0424988 -0.0166378 
62 2 52.5007 32.9866 -3.83516 -0.0214682 -0.0726076 0.0727804 
65 2 50.3721 30.4733 -1.77331 -0.0261121 0.0858186 0.0808555 
50 1 51.364 30.7171 -1.89733 -0.0144547 0.00517139 -0.00467956 
53 1 51.8156 31.8954 -2.36615 0.0229855 -0.0160719 0.0275334 
37 1 53.6936 30.1118 -3.22587 -0.00350548 -0.0113022 0.0120736 
45 1 52.6255 31.907 -3.62619 -0.0237921 0.0123405 -0.0136654 
39 1 53.9599 31.2931 -3.80318 0.0236977 -0.00885731 -0.00808735 
66 2 53.1329 35.9064 -5.37657 -0.0424955 0.0322012 -0.112457 
42 1 55.6126 30.5729 -5.47812 -0.0130746 0.0171558 0.00808007 
41 1 55.0926 31.7235 -4.72532 -0.00244735 0.00489516 9.45466e-05 
58 1 55.0807 32.9547 -5.72516 0.00459206 -0.0171076 -0.0274593 
57 1 54.704 34.2897 -5.23977 -0.0132903 0.0181247 -0.00556487 
47 1 54.018 35.4209 -4.90364 -0.0140582 0.000939931 0.0150303 
394 2 50.5471 12.4712 3.50243 0.0698756 0.0608762 0.131244 
144 2 51.139 12.522 3.6733 -0.121333 0.00855293 -0.0449033 
98 2 49.614 35.3442 7.01336 0.0310415 -0.0425144 -0.127809 
464 2 40.316 14.0062 34.4909 -0.18177 0.131926 -0.0412698 
64 2 40.9169 14.0425 34.6861 -0.0607133 -0.0132142 0.0114928 
140 2 45.7287 35.4515 31.2072 0.072466 -0.0737166 -0.0321006 
361 1 79.4587 -11.7058 5.4879 0.0195948 -0.00498709 0.00161185 
367 1 78.1758 -11.8435 5.18614 -0.00505409 -0.0129363 0.00434567 
35 2 68.9157 2.8773 3.79053 0.168465 -0.0412453 -0.095951 
23 1 69.876 3.27215 4.18575 0.0176314 -0.0129967 0.0266683 
12 1 70.2785 3.34863 5.55029 0.00204381 0.00314149 0.0143011 
20 1 70.9182 3.29739 3.15627 -0.0102538 -0.0146214 -0.000777554 
32 2 70.613 3.38062 2.07997 0.0211826 0.0416852 -0.0686606 
6 1 71.6803 3.12458 5.94748 -0.0290647 -0.00187631 -0.00583058 
28 2 73.472 3.78901 0.542517 0.0227791 0.0740719 0.0321771 
31 2 74.6605 5.18666 1.17572 0.0120393 0.0308585 -0.000205051 
16 1 73.6526 4.45719 1.24175 0.0185024 0.00145724 0.0262893 
19 1 73.0926 4.29716 2.41893 -0.00978048 0.0300851 -0.0201722 
10 1 72.2647 3.83555 3.5138 -0.0279647 0.0044275 0.00367815 
1 1 74.7273 4.90463 5.30405 -0.0189325 0.00281701 -0.00863735 
4 1 72.5853 3.53176 4.9324 -0.0202656 0.00731844 0.0100179 
2 1 73.6642 3.8674 5.62531 -0.000463589 -0.00474659 0.00139479 
389 2 76.5546 -10.5898 7.73643 0.116423 0.0622475 0.0267149 
374 1 77.1141 -11.8088 6.31158 -0.0202095 -0.0174152 -0.00774838 
377 1 77.5422 -11.0208 7.45836 0.013643 -0.00337653 -0.00647157 
366 1 82.2021 -11.3174 6.72887 0.00731003 0.037633 -0.0135454 
365 1 81.0096 -10.8742 7.48387 0.0133083 -0.0038861 0.0125987 
378 1 79.1371 -9.40085 8.42106 -0.0198522 0.0178363 0.0248591 
393 2 80.2804 -8.93418 10.3825 0.0500056 0.0640395 0.060841 
372 1 83.4614 -11.6414 7.0408 0.0168162 -0.00504889 -0.00655903 
384 1 83.8113 -11.4116 8.35112 -0.00603866 0.00265178 -0.0173687 
381 1 80.2101 -9.47686 9.4145 0.0083404 -0.00221231 -0.0231405 
371 1 81.3152 -10.352 8.81931 -0.00691644 -0.00619446 0.0105654 
167 1 82.1837 -9.86532 11.1818 -0.00750505 0.0118412 0.0167483 
382 1 82.6847 -11.0825 9.14227 0.0128496 -0.0242893 0.00609986 
164 1 83.312 -10.516 10.2749 -0.00624884 -0.0227224 0.00846927 
495 2 78.515 -8.82929 9.17164 -0.0278572 -0.0336845 0.026117 
369 1 78.8645 -10.4136 7.21287 -0.0148712 -0.00393724 0.00103343 
363 1 79.9613 -10.8677 6.41296 -0.0123362 -0.0022622 0.0169612 
175 2 81.1922 -11.7154 11.9282 -0.0645367 0.00320273 -0.0134584 
179 2 60.1049 -0.262302 8.88217 0.0148109 -0.0106496 -0.0236344 
36 2 68.2484 2.7908 6.60377 0.0197201 0.0948163 -0.078774 
24 1 69.3781 2.87556 6.63136 0.010697 0.0212179 0.016203 
30 2 71.2619 3.73898 10.5294 -0.0346381 0.0112928 -0.0250609 
34 2 70.1866 1.50717 8.13019 0.00671315 0.0501126 -0.0566911 
22 1 70.3489 2.3119 7.46616 0.0207704 0.0398633 0.00373376 
11 1 71.1681 3.42899 8.2274 -0.00682829 -0.0294683 -0.0249507 
21 1 71.9458 3.71479 9.53018 -0.0102203 0.014658 0.00497153 
7 1 75.4363 5.79414 6.20385 -0.0191033 0.0240407 0.0153451 
3 1 73.6389 3.373 7.07708 -0.0181755 0.00944922 0.0280047 
5 1 72.2896 3.62882 7.21798 -0.00606379 -0.00397474 -0.0230773 
18 1 73.5014 3.54217 9.29823 0.0435858 0.00220213 0.0320502 
26 2 75.4472 4.18417 8.33499 0.0235159 0.103411 -0.00427282 
9 1 74.4092 3.95557 8.31729 -0.0155658 -0.00063563 0.0191179 
25 2 77.7925 6.27859 6.3089 0.00624125 0.0201917 -0.0507783 
13 1 76.7426 6.45663 6.57307 0.0183669 0.01076 0.0029063 