ITEM: TIMESTEP
210000
ITEM: NUMBER OF ATOMS
576
ITEM: BOX BOUNDS pp pp pp
-1.2000000000000000e+01 8.4000000000000000e+01
-1.2000000000000000e+01 3.6000000000000000e+01
-1.2000000000000000e+01 3.6000000000000000e+01
ITEM: ATOMS id type x y z vx vy vz 
446 1 9.37514 6.38141 7.06089 0.0280535 0.0155066 -0.00468897 
118 1 -11.0971 0.996349 6.64664 0.0143376 -0.0151198 -0.0174208 
458 2 9.45629 7.39514 6.68533 0.0103674 0.121885 0.0274397 
463 2 8.16459 -1.03743 5.74633 0.0255786 -0.00670492 0.0115222 
451 1 7.78112 0.148489 6.24714 0.00218333 0.0125678 -0.0111821 
448 1 8.18728 1.20462 5.4531 0.0203328 -0.0123875 0.0242547 
460 2 8.30289 1.10601 4.49677 0.0872715 -0.0148147 -0.0910512 
440 1 7.89249 2.63777 5.7746 -3.10711e-05 -0.000959477 0.0130273 
445 1 8.1896 5.04296 5.32618 -0.012499 -0.0350636 -0.0104614 
459 2 6.85246 4.15322 4.3518 0.0325048 -0.0496342 -0.0775777 
447 1 7.7972 3.80556 4.8056 0.00730762 2.05864e-05 -0.00853503 
457 2 8.23801 5.94736 4.73562 0.0298196 0.0163297 -0.0136506 
140 2 -9.15316 0.782754 5.59923 -0.0483704 -0.0145648 0.0568254 
464 2 7.16115 -1.6167 8.7311 0.0578699 -0.0188313 0.0843555 
467 2 7.52283 -0.382076 11.0263 0.0388531 0.0164266 -0.0696265 
452 1 7.52643 -0.658284 8.92354 0.0132891 -0.0183281 0.013081 
139 2 -11.5401 -0.435107 4.88018 0.0702243 -0.0196969 0.08955 
128 1 -9.61179 0.954499 6.51382 -0.00857141 0.0149345 0.0157382 
131 1 -9.14833 1.84794 7.32303 -0.00303794 0.00814195 -0.00517688 
143 2 -8.03968 2.2986 7.17996 -0.1182 -0.0202989 0.0237738 
120 1 -9.82129 2.45661 8.47927 0.0191679 0.0047919 0.0180154 
114 1 -11.1016 2.14399 8.79851 0.00433642 0.0105203 0.000929563 
132 1 -8.93468 3.18763 9.40798 0.0092348 0.00248185 0.0162978 
127 1 -11.9055 -0.0320661 6.10814 -0.0205851 -0.000598103 0.0334623 
119 1 -11.0052 3.30023 10.9392 0.0142404 -0.0184126 0.0356412 
144 2 -7.86863 2.96068 8.91903 -0.0105377 -0.0333613 -0.0825392 
130 1 -9.62437 3.87835 10.541 0.0113788 0.00371853 0.00551009 
142 2 -9.2437 4.35637 11.2901 -0.037724 0.0214746 0.0194106 
449 1 9.45249 6.52121 8.54698 1.8318e-05 -0.00025118 0.00323475 
455 1 7.5947 -0.0101592 10.054 0.0211466 -0.0131973 -0.00154312 
442 1 7.83876 0.357959 7.72182 -0.000573466 -0.00508038 0.0191555 
436 1 8.35921 1.67155 8.13481 0.0171199 0.000621472 0.0077496 
444 1 7.78447 1.39755 10.5619 0.0251353 0.00865732 0.0135406 
456 1 7.57332 1.6951 11.8813 -0.00348951 0.00357837 0.0245853 
438 1 8.34514 2.23111 9.5036 0.0037295 -0.00169813 0.0216476 
434 1 8.2499 2.86561 7.23308 0.0044969 0.0198694 0.00209069 
441 1 8.75067 5.79141 9.62869 -0.00234616 -0.0119396 0.0248865 
443 1 8.41993 3.79125 11.4527 0.00164471 -0.0106791 -0.0251574 
437 1 8.66825 3.43817 10.0082 0.0327284 0.0197587 -0.023815 
433 1 8.95981 4.06308 7.59249 -0.0176979 -0.00820303 0.00436237 
435 1 8.58115 4.54879 9.03026 -0.00903491 0.00241885 -0.00745696 
129 1 -11.7716 4.1311 11.9816 0.00169171 -0.017981 -0.00209403 
462 2 9.18093 7.04799 11.2032 -0.108168 -0.102993 0.0314646 
450 1 9.26297 5.89404 11.0493 0.000857722 0.0270814 -0.014542 
439 1 8.8903 5.21735 6.52847 -0.0045201 0.00327987 0.000352207 
461 2 9.63242 7.62199 8.59758 -0.000919768 0.0244246 0.032392 
113 1 -11.6688 2.48696 9.99868 -0.00118192 -0.0242587 0.0131479 
466 2 7.56037 3.5086 13.1445 0.0760268 -0.0854942 0.0376252 
465 2 8.71352 5.13856 12.9721 -0.0939525 -0.0744764 -0.0665323 
285 2 -2.68618 6.05968 29.5823 -0.00690053 -0.00489759 0.0759247 
273 1 -1.77879 5.42338 29.9435 -0.0332639 -0.0124481 0.0236546 
263 1 -0.744171 5.45994 29.0438 0.0104434 -0.000351275 0.0285483 
286 2 -2.12938 5.75316 28.0823 -0.0515949 -0.106271 0.0642083 
274 1 -1.06537 6.31489 27.894 -0.0114642 -0.012057 0.0212272 
257 1 0.362522 4.6179 29.3706 -0.000524468 0.0330823 -0.0134338 
255 1 0.580039 3.99795 30.7165 0.0115311 0.00956381 -0.0276724 
254 1 3.17138 4.67674 30.5032 -0.0100983 -0.0238509 0.00488469 
260 1 4.37405 3.97301 30.5482 0.0377084 0.00770458 0.00726284 
258 1 1.53541 5.0575 28.7715 -0.00362555 -0.0218111 -0.0231535 
256 1 2.9544 4.94014 29.0952 0.00102097 -0.013439 0.021635 
262 1 3.97405 5.55813 28.3422 0.0326347 0.00793973 -0.0147913 
268 1 5.282 3.95059 29.4052 -0.00364903 -0.0142888 0.0238716 
271 1 5.2584 5.01029 28.4768 -0.00762646 -0.0033673 -0.00718964 
283 2 5.62873 5.07479 27.4556 0.0461555 0.0308356 0.0653528 
280 2 5.99723 2.94068 29.3668 0.0256225 0.0612207 0.168884 
284 2 4.90555 6.62782 26.2803 -0.004258 -0.0415865 0.0405931 
272 1 3.91847 6.24285 27.0334 -0.00774751 -0.0243947 0.00483121 
276 1 0.020684 6.03367 26.9828 -0.01332 0.02046 0.00405439 
288 2 -0.0595824 5.64317 25.9638 -0.00385478 -0.0228739 0.0176243 
287 2 2.71791 6.25857 25.5816 0.0422524 -0.0151328 -0.00651513 
264 1 1.45098 5.52816 27.2502 0.00910768 -0.00289354 0.0150153 
275 1 2.69461 5.70268 26.5788 -0.0131483 0.00434087 -0.0129713 
66 2 6.03856 -11.2742 31.6622 0.0129058 0.0584062 0.00552803 
454 1 8.01862 2.98045 12.4196 -0.00109959 0.0149762 0.015445 
282 2 -2.4454 4.16411 31.7916 -0.0228197 -0.0652406 -0.0185313 
270 1 -1.73243 4.53934 31.0732 -0.0145276 0.0403937 0.00849038 
261 1 -0.572643 3.92446 31.6979 0.00861101 0.0175793 0.019836 
281 2 -1.23006 3.53489 33.3665 -0.0852086 0.0127835 -0.0232686 
269 1 -0.22362 3.41186 32.9081 0.0200651 -0.0137912 0.00756414 
278 2 0.870551 2.26679 34.1826 0.0569174 -0.0255546 0.0160479 
253 1 1.92743 4.0302 31.2116 -0.0318377 0.0113277 -0.0019816 
277 2 3.82016 1.32997 32.9231 -0.0456739 -0.0452295 0.0545856 
259 1 1.99986 2.97335 32.2022 -0.00441432 -0.017071 0.0320469 
267 1 4.30031 2.56127 31.2755 -0.0113192 0.0104976 -0.0033538 
265 1 3.32918 2.3369 32.2786 0.034319 -0.00673958 -0.0114712 
279 2 4.77393 1.64343 31.1348 -0.0096026 -0.0378977 0.0342026 
266 1 1.02528 2.85107 33.3442 -0.0252195 -0.0135529 0.00150422 
453 1 8.84243 4.84399 12.0446 0.0188812 -0.00604456 0.00728187 
141 2 -10.914 4.24256 12.5267 0.0781889 0.00611625 -0.0440182 
65 2 8.24361 -11.4728 33.6458 -0.0557183 -0.0442311 -0.0218936 
468 2 7.61496 1.29327 12.8813 -0.0042173 -0.0197656 0.0134176 
69 2 4.26712 35.7059 30.6345 0.0894675 -0.00127721 0.0705533 
344 1 -3.2427 27.7903 24.7748 -0.0227255 0.00632977 0.00767836 
356 2 -2.40511 27.3481 24.0679 0.0511877 -0.0318467 0.0656899 
334 1 -4.05405 29.0307 24.4371 -0.0132279 -0.0082698 0.00718863 
328 1 -5.32878 29.0461 25.227 -0.00254398 0.000332641 0.00450692 
339 1 -6.75222 31.9031 22.8418 0.017306 0.0081207 0.00331462 
337 1 -8.24817 31.4807 22.644 -0.0272989 -0.0374762 0.00733905 
351 2 -6.76848 32.7902 22.0186 0.0141903 -0.0628495 0.020506 
349 2 -8.72802 32.4146 22.0375 0.0850588 -0.00854327 0.055809 
338 1 -10.0094 30.3616 23.4762 -0.00276438 0.00868988 -0.00124813 
350 2 -10.628 31.1596 23.2946 -0.0593948 0.0297775 0.0211391 
355 2 -2.43688 30.0479 23.4941 -0.00400023 -0.00722683 0.0738372 
343 1 -3.62199 30.1091 23.5658 0.00173954 0.00596412 0.00371479 
340 1 -4.30937 31.3586 23.2493 -0.025496 -0.00483756 0.00926463 
332 1 -5.639 30.903 23.1886 0.00814252 -0.0175658 -0.000606575 
352 2 -3.77204 32.1371 22.7502 -0.0701641 0.0156435 0.0573368 
326 1 -6.26549 29.7564 24.4007 -0.0182044 -0.000232642 -0.00759213 
325 1 -7.50489 29.4033 23.9236 -0.0215344 -0.00243389 -0.0159791 
342 1 -10.0169 27.5328 25.7368 -0.00827897 -0.00743916 -0.0197552 
354 2 -10.9143 27.8925 25.7876 -0.00900326 0.0198282 -0.00869383 
333 1 -9.4638 28.2925 24.6082 -1.65997e-05 -0.00850603 -0.00986666 
353 2 -11.6174 29.6806 24.5548 -0.0206579 0.0022748 0.0671712 
341 1 -10.5317 29.2931 24.2141 -0.00801422 0.0109444 -0.0139967 
345 1 -9.70723 26.2696 26.0751 -0.0336046 -0.0059231 0.0190605 
357 2 -10.1196 25.416 26.7245 0.0307784 0.0108493 -0.0208627 
327 1 -8.25219 28.2966 24.3744 0.004825 -0.0188513 0.0266204 
329 1 -7.46779 27.4412 25.3153 -0.00770605 0.0125758 0.000270943 
335 1 -8.20805 26.3784 25.9612 0.000164526 0.0120438 -0.0157316 
346 1 -7.3918 25.182 25.8049 -0.0168089 0.0113923 -0.00248615 
358 2 -8.15613 24.396 25.957 -0.010019 0.0333234 0.0370381 
336 1 -5.59569 26.4805 24.8521 0.0120439 -0.0118579 -0.00178681 
330 1 -6.04925 27.7093 25.2429 0.0123964 -0.00538511 -0.0277166 
359 2 -3.62968 25.9999 23.8981 -0.0231496 0.062322 0.041133 
347 1 -4.20479 26.6166 24.4204 -0.0306444 -0.0225446 0.0051258 
348 1 -6.3221 25.1693 24.9795 0.00563357 0.0185087 0.0303478 
360 2 -6.15755 24.0315 24.6156 0.025927 -0.0632687 0.0333091 
331 1 -8.48831 30.3343 23.0831 0.025893 -0.0117512 0.00753185 
68 2 4.61281 28.1683 33.4982 0.00651629 -0.0525058 0.11347 
56 1 4.88877 29.0005 32.8584 0.00349958 -0.00890833 -0.0149874 
46 1 6.29135 29.1631 33.2797 0.0162848 -0.000982968 0.0171618 
67 2 7.44703 27.2193 34.3222 0.0068387 0.0242884 0.0408587 
64 2 9.617 28.1808 34.2511 0.020528 -0.00418753 -0.0506749 
52 1 8.74185 28.6555 33.6563 -0.0181015 0.00616061 -0.0132038 
55 1 7.32547 28.4367 33.9555 0.00378381 0.0213934 -0.0085377 
59 1 4.17173 29.7628 31.95 0.000833997 -0.00261271 -0.0161181 
48 1 4.32521 31.3758 31.7244 0.0148896 -0.0306279 0.0122173 
60 1 3.23239 32.2394 31.5909 0.0092129 -0.00723273 0.024647 
72 2 2.06531 32.3458 31.5125 -0.0072958 -0.0574481 0.0810915 
42 1 5.69303 31.6219 32.2081 0.0108892 -0.0188985 0.0149476 
58 1 3.71971 33.5675 31.0441 0.00227542 -0.00198915 0.0161152 
47 1 5.06852 33.6562 31.0344 0.0124831 0.00580723 -0.0261967 
70 2 2.88076 34.5233 30.7296 -0.00850176 -0.0386049 -0.0445836 
57 1 5.15258 35.1813 31.2923 0.000193087 -0.0125374 0.000929147 
61 2 11.5361 32.2742 32.7232 0.0339776 0.0276904 0.00518322 
63 2 11.2131 29.9507 33.4119 -0.0483168 -0.0115581 -0.0062551 
41 1 5.91924 33.0192 32.068 -0.00497058 -0.0232501 -0.0116117 
51 1 10.3235 30.4455 33.1672 0.0073084 0.00882909 -0.0246778 
40 1 6.51291 30.351 32.4152 -0.0186822 -0.0202375 -0.00490584 
44 1 8.94726 30.0183 32.9765 -0.00441977 0.00614668 -0.00393309 
38 1 7.78868 31.0375 32.7844 -0.0186559 0.0382049 0.0263511 
37 1 8.24636 32.4241 32.9979 -0.0159 0.0173245 -0.0039873 
39 1 7.3608 33.523 32.3487 0.00705575 -0.00756296 0.00243055 
49 1 10.6234 31.7536 32.9436 -0.0223253 -0.00456012 0.0171929 
45 1 6.93394 34.8542 32.9039 0.0195349 -0.0113468 -0.0121553 
43 1 9.53687 32.9431 33.1526 -0.0267975 -0.0221677 -0.0327089 
53 1 8.14309 35.3826 33.3183 -0.0171841 -0.00172786 -0.000541154 
50 1 9.44593 34.3403 33.4596 0.00492341 0.00713283 -0.00451237 
62 2 10.0681 34.5727 34.3031 -0.00920578 -0.0371063 0.0138877 
54 1 5.98433 35.8098 32.1662 0.00955043 -0.00680406 -0.0347174 
537 2 10.1191 18.7504 25.2615 -0.0650171 0.163648 0.0193542 
540 2 9.84663 19.1809 25.8745 -0.00710711 -0.0708067 -0.0251034 
574 2 19.0579 0.895325 0.769934 0.07731 -0.147762 -0.0411585 
572 2 19.9036 -5.46183 -1.86858 -0.0534307 -0.0578273 -0.142035 
575 2 18.4131 -3.54844 -1.59603 -0.0200094 0.0011001 0.0775743 
576 2 19.287 -1.17513 -1.37481 0.0740448 0.00582704 0.0233131 
562 1 19.1172 -0.141697 0.631347 -0.0158855 0.0310768 0.0111653 
564 1 19.1633 -0.976293 -0.331496 0.0116942 0.00820581 -0.0151539 
552 1 19.7795 -2.42256 -0.242656 -0.0313083 0.00813414 -0.0128051 
563 1 18.9208 -3.67306 -0.661055 -0.00695003 0.0121036 0.0114439 
560 1 19.7071 -4.99274 -0.928698 0.00788706 0.0122033 -0.0181395 
571 2 20.7487 -7.59247 -0.437279 0.0548676 0.0149713 -0.0266512 
559 1 21.0583 -6.74629 0.26984 -0.0273845 -0.0147053 -0.0261932 
555 1 19.8821 -7.10472 3.61602 -0.014423 0.00108186 -0.0213796 
568 2 21.6805 -8.27497 1.71871 -0.0112102 0.0125487 -0.0329153 
548 1 20.7615 -6.57687 2.57653 -0.000456324 0.0197397 -0.000181748 
556 1 21.5327 -7.26429 1.55694 -0.0015571 0.00401856 -0.00926385 
553 1 18.8582 -6.35557 4.33558 0.0212008 0.00862898 -0.00577083 
567 2 19.578 -8.05389 3.46696 -0.00316575 0.129561 0.0178229 
558 1 18.8875 -0.793933 4.15852 0.000510074 0.00705965 0.0260791 
570 2 18.6139 0.130769 4.79043 -0.055991 -0.0110544 -0.00822337 
549 1 19.1793 -2.22476 4.50948 0.00932515 0.00531835 0.0255204 
569 2 17.9452 -2.14077 6.53326 0.0327084 0.0621105 0.0216212 
554 1 18.9599 -4.08709 5.72188 0.00512687 -0.00790785 0.00649415 
557 1 18.4373 -2.77312 5.68743 0.0195707 0.042687 -0.015815 
550 1 20.5947 -5.3705 0.121491 -0.0145323 0.0214373 0.0155771 
551 1 19.0181 -0.794184 2.05853 0.00730599 -0.0105091 0.00810821 
561 1 17.9111 -0.55443 3.06786 0.0204876 -0.00636979 0.00884261 
543 1 19.7067 -2.8935 3.45933 -0.0169438 0.0161355 0.0164746 
547 1 19.0713 -4.86895 4.42151 0.00407933 -0.0252017 -0.0122403 
541 1 20.079 -4.32354 3.55961 0.00874 -0.0186842 0.0217895 
545 1 19.7754 -2.08109 2.17656 0.022283 0.0295943 -0.00547632 
546 1 20.0898 -2.91779 1.20265 0.0189592 0.0126407 -0.00751457 
544 1 20.5942 -4.33668 1.22355 0.00313217 -0.0204276 -0.000543515 
542 1 20.5176 -5.14077 2.41957 -0.00894004 -0.00472286 -0.00244206 
573 2 16.7905 -0.488279 3.09798 0.00977501 -0.0538466 0.0639956 
565 2 18.1908 -6.93813 4.67459 -0.0323051 0.0354518 0.0271555 
566 2 19.101 -4.59528 6.79863 0.0275411 -0.093565 0.103893 
105 2 25.2222 35.2448 -9.12125 -0.0334514 0.0415795 0.0513955 
531 2 35.0166 34.7109 -11.0311 -0.0399648 -0.0716719 0.00308047 
519 1 35.9168 34.2166 -11.4174 0.0034475 0.0130028 -0.01634 
425 2 33.3424 18.3053 20.7035 -0.0339905 0.0595912 0.00301093 
422 2 35.9545 17.4257 21.858 0.140904 -0.0405174 0.048417 
413 1 34.4758 18.6948 20.9913 -0.0109879 0.0185515 -0.0140504 
426 2 32.3112 19.9578 21.2972 -0.0613835 -0.0189044 0.0126261 
414 1 32.7812 20.7163 20.7593 -0.0240214 -0.0159896 0.0120017 
405 1 34.0093 19.9606 20.3578 -0.0300391 -0.0186487 0.0298957 
401 1 35.0996 21.9693 19.9685 -0.0370023 -0.000335236 0.0231579 
417 1 32.9128 22.1066 20.8059 -0.00299259 0.00317659 -0.00417636 
429 2 31.8296 22.2094 20.7915 -0.0352578 0.0429238 0.0504193 
418 1 33.7239 24.0335 19.3577 0.0199953 0.0221515 0.0137173 
407 1 33.9157 22.949 20.1536 0.00890132 0.00945455 0.0306928 
399 1 35.1983 20.5134 19.8483 0.0222721 -0.012867 0.00706851 
430 2 33.0121 24.4245 19.2704 -0.0362472 0.00246422 0.0231966 
420 1 34.8052 24.8402 18.7626 -0.00789508 0.0263544 -0.0173988 
432 2 34.7112 25.7195 18.3303 -0.0662209 0.0234449 -0.0652132 
410 1 35.6754 17.9002 20.878 0.00151926 -0.00370712 0.036607 
530 2 35.7213 30.4527 35.0343 0.0155575 0.0477756 0.0365321 
207 2 20.0323 20.2458 29.2825 0.0036264 0.0600284 0.13305 
195 1 20.7852 21.1448 29.4509 -0.0216463 0.0124488 -0.0183533 
188 1 22.2748 21.5492 28.9094 0.00487569 -0.00144716 -0.00702019 
208 2 21.5829 20.474 27.064 0.0805671 -0.0912292 0.128256 
196 1 22.6039 21.2142 27.7165 -0.016271 -0.00471263 0.00482281 
211 2 23.4931 21.4669 25.6734 0.0089379 0.0890732 -0.0221808 
182 1 23.1586 22.4318 29.2871 -0.0358015 -0.0209567 0.00327895 
199 1 23.601 21.4841 26.8243 -0.000948627 0.0122415 0.0117821 
190 1 24.5321 21.9433 27.4256 -0.00406088 5.50449e-05 -0.0105467 
184 1 24.2799 22.6963 28.5292 -0.0271489 0.0145623 -0.000148343 
212 2 26.4487 21.4199 26.437 0.0417262 -0.00643959 -0.0553954 
200 1 25.8079 22.0643 27.0482 -0.010852 0.0128309 0.00571947 
186 1 25.0436 23.7079 29.2396 -0.0341819 -0.000164026 -0.00282193 
192 1 26.1535 24.0686 28.5548 -0.0023995 0.0134461 0.0269249 
203 1 26.4836 23.2992 27.4626 0.00562322 -0.00777492 0.00233707 
215 2 27.172 22.9618 26.4974 -0.0244066 0.0449347 -0.00679549 
204 1 26.9513 25.4854 29.1982 -0.0250652 -0.00610379 0.001958 
216 2 27.8451 25.3464 28.6197 -0.106489 0.181507 0.0158535 
205 2 19.8633 21.3232 31.6226 0.012987 0.0751908 0.0463678 
193 1 20.6544 21.3957 30.9098 9.20641e-05 -0.013403 -0.00501029 
187 1 21.8193 22.2248 31.4288 -0.0260613 -0.00189196 -0.0109106 
194 1 21.8316 22.1441 32.8109 0.0151421 -0.0109455 0.00589947 
181 1 22.8492 23.0629 30.5917 -0.00487448 -0.0164144 -0.0122717 
206 2 21.2116 21.2958 33.4869 -0.00662445 -0.0511705 0.0404092 
197 1 22.8581 23.0218 33.2781 0.00144357 0.00541352 -0.00622714 
183 1 23.6518 23.9225 31.1346 -0.0264885 0.00460132 -0.0123875 
185 1 24.6751 24.3089 30.5389 0.00857157 0.00227315 0.00411138 
209 2 23.2109 22.5568 34.1254 0.0870735 0.0735779 0.0338111 
201 1 25.5177 25.3877 32.3501 -0.0073622 0.000293451 -0.0379419 
191 1 25.3257 25.4477 30.9082 -0.00486206 0.00494342 0.0267271 
202 1 26.381 26.3411 30.2444 0.00154483 0.0185681 -0.0182533 
214 2 26.172 27.3696 29.9797 0.0645169 0.00161816 -0.0275533 
189 1 23.4529 24.149 32.5927 -0.0142367 0.0141455 -0.00717034 
198 1 24.5134 24.8768 33.2013 0.0033692 -0.00238073 0.0049854 
210 2 24.2807 24.0323 34.1166 0.061937 -0.0515316 0.046719 
213 2 26.3201 25.8046 33.1307 0.00927819 0.0206845 0.00169344 
520 1 37.0555 -11.501 -11.5896 -0.00154152 -0.00870093 -0.0429051 
395 2 49.0871 2.5345 9.81453 0.0657208 -0.0619092 -0.0436114 
532 2 37.1809 -11.0453 -10.534 -0.0301162 0.0321286 0.136111 
241 2 38.3194 -5.72442 -6.71143 0.0374626 0.168855 0.0130283 
219 1 38.8128 -1.21593 -6.34771 0.0193755 -0.00358091 0.00921464 
221 1 38.582 -0.368902 -7.56114 0.021171 0.0162203 -0.0122182 
222 1 39.0201 -0.199919 -8.84215 -0.00196888 0.0377201 -0.0152349 
217 1 39.265 -2.35178 -7.19213 0.0132514 0.0157704 -0.00782955 
223 1 38.8166 -3.46146 -6.53058 -0.0116876 -0.00393883 -0.013547 
218 1 39.6906 -2.40493 -8.52567 0.0244823 -0.0348397 -0.0052171 
224 1 40.1886 -3.4391 -8.94914 0.00125631 -0.00333886 0.005583 
232 1 40.9201 -3.51442 -10.2576 -0.00233747 0.00120817 0.00874355 
235 1 40.9915 -2.46504 -11.1141 0.00114178 -0.0243916 -0.00224113 
226 1 40.3998 -1.18646 -10.5382 0.00430982 -0.00902067 -0.000876438 
220 1 39.7471 -1.26221 -9.37412 0.00723958 0.0236791 0.00776946 
229 1 38.8146 -4.75973 -7.23731 -0.0404305 0.0022314 0.000804876 
231 1 39.6159 -4.76237 -8.34472 -0.0112334 0.00692901 0.0315611 
243 2 39.9639 -5.63674 -8.94595 0.004857 0.00485197 0.0256775 
244 2 41.5825 -4.41624 -10.6022 0.0219197 -0.00611404 0.0586606 
497 2 51.2115 -2.54568 -5.99627 -0.0397753 0.0971889 0.0100679 
485 1 52.143 -2.28834 -5.57037 -0.000420078 0.0212602 -0.00133351 
482 1 53.4167 -2.4663 -6.38522 0.00191607 -0.0317381 0.00704777 
494 2 53.9261 -2.78348 -7.24839 -0.00712482 0.109565 -0.037227 
493 2 57.0511 -3.27139 -6.68865 -0.0383989 0.0055994 -0.0862611 
228 1 38.5171 0.788119 -9.67988 -0.00901497 0.0158096 -0.021378 
240 1 37.6137 1.78764 -9.29483 -0.00873513 -0.0095519 0.00506166 
236 1 39.8793 -0.212092 -11.4875 -0.0245495 0.0284791 -0.00812265 
239 1 39.2176 1.01144 -10.9641 0.0111551 -0.0114108 -0.00849497 
251 2 38.4409 1.51399 -11.605 0.0183921 0.00939426 -0.0713299 
252 2 37.4331 2.50648 -10.0426 -0.0808729 0.0682163 -0.0224084 
238 1 37.7114 2.1092 -7.84137 0.0247929 -0.00834329 -0.0334747 
227 1 37.8489 0.762507 -7.07385 -0.0187233 0.0248957 -0.0011244 
250 2 38.2216 2.82732 -7.15907 0.0193749 0.00165709 0.00946276 
384 1 50.4394 0.543236 8.35548 -0.0173525 -0.00214152 -0.00710506 
242 2 38.1301 -4.57961 -4.72523 -0.022956 -0.0290354 0.0309405 
230 1 38.1638 -3.81228 -5.27847 0.0155533 -0.0313875 0.0103622 
245 2 37.5494 -2.79639 -3.70753 -0.0640552 -0.0606753 0.0592062 
233 1 37.782 -2.81161 -4.6437 0.00812098 -0.00865076 -0.00771476 
225 1 37.874 -1.49214 -5.32433 0.0133741 0.0169817 -0.000227157 
234 1 37.2414 -0.16382 -4.91172 -0.0237677 0.0130247 -0.0166519 
246 2 36.6274 0.020667 -3.87165 0.0812288 -0.0264971 0.0834573 
498 2 50.0126 -0.824619 -5.33922 0.0170177 0.0390295 -0.000277193 
473 1 53.4387 0.0165712 -3.10048 0.0126941 0.0295046 0.0200128 
486 1 50.6868 -0.58373 -4.57585 -0.0267164 0.00084068 -0.00459744 
477 1 52.1307 -1.23954 -4.58017 -0.0219458 0.0011459 0.00284897 
471 1 53.4566 -1.10289 -4.04859 -0.0023825 -0.00501898 -0.0121482 
474 1 54.5527 0.169037 -2.32042 -0.0150141 0.0104245 -0.0275764 
469 1 54.4683 -2.01382 -4.26941 0.00537931 -0.0229643 -0.0235161 
470 1 55.8055 -1.33282 -3.61128 -0.00657735 -0.00202327 -0.0145545 
475 1 54.5972 -2.44948 -5.55662 0.023133 0.00733082 0.0206656 
481 1 56.1795 -2.67523 -5.89749 0.0159231 -0.00344562 0.00322074 
483 1 57.2628 -2.71342 -4.9239 0.00790505 -0.000209582 -0.029962 
476 1 57.0623 -2.28558 -3.55903 0.00607658 -0.0183382 0.0257189 
495 2 58.2394 -3.18461 -5.2199 -0.0115548 0.0353122 -0.0485476 
496 2 57.9552 -3.90751 -2.09151 -0.0531473 0.00792072 0.0445796 
484 1 57.5851 -3.05884 -2.44127 0.0067024 -0.0122783 -0.037738 
472 1 55.7976 -0.406603 -2.38641 -0.00207413 0.00956586 -0.00663629 
487 1 57.0154 -2.35435 -1.26794 0.00984878 -0.0185412 0.0125514 
499 2 57.7134 -2.05659 -0.407095 -0.0629628 0.00431215 0.00222709 
33 2 38.6713 6.30426 -5.01888 -0.0767098 -0.0813725 0.111136 
237 1 37.1895 0.901234 -5.71536 -0.0172255 -0.0154858 0.0032916 
14 1 41.583 1.47383 -3.11426 0.0202214 -0.0109557 -0.0189343 
17 1 40.4491 2.28873 -2.96712 -0.0235942 -0.0242745 0.00353438 
29 2 39.405 1.90979 -2.99553 -0.0266495 -0.0424463 0.0675023 
9 1 40.5142 3.76507 -3.48499 0.00883003 0.00460254 -0.0120058 
18 1 39.4793 4.66071 -3.95861 -0.00637384 0.014034 0.00170194 
3 1 41.5768 4.59928 -3.32096 -0.000784943 -0.00548745 -0.00492949 
5 1 41.8264 5.58111 -4.36601 -0.0168916 -0.0195664 -0.00515406 
30 2 38.5136 4.63868 -3.7148 -0.00601441 0.0702504 0.0999475 
26 2 41.2422 0.480584 -2.59907 0.0749857 0.0135937 -0.0532438 
21 1 39.3708 5.43473 -5.04819 -0.00474996 -0.00589144 -0.0219728 
11 1 40.8672 5.79017 -5.48085 0.0252237 0.0258505 0.0104194 
249 2 36.7297 1.85508 -5.56704 -0.01475 0.0381003 -0.0221684 
7 1 42.7957 2.46244 -2.77999 0.0146366 0.0174316 0.0189241 
1 1 42.8345 3.84232 -3.21374 -0.0238815 0.0239286 0.01754 
2 1 43.989 4.4863 -2.65802 -0.00555445 0.00888499 -0.0177157 
4 1 44.058 5.83416 -3.0169 0.0115662 0.0103015 -0.0126881 
6 1 42.9287 6.38938 -3.93992 0.000782298 -0.0189866 0.00690217 
25 2 43.7569 0.666449 -1.49134 -0.0371709 -0.0223899 0.0392912 
13 1 43.6404 1.71327 -1.98638 0.0140049 -0.00230208 -0.0257876 
15 1 44.8787 2.31894 -1.47385 0.00372211 0.0123165 -0.0198626 
8 1 45.0588 3.69867 -1.58148 0.0183008 0.0115584 -0.011935 
489 1 50.9982 0.602867 -3.60698 0.0197368 0.00494656 -0.00722674 
501 2 50.0225 1.17714 -3.52634 0.0623454 -0.0575073 0.0601187 
479 1 52.2017 0.685246 -2.8436 -0.00947291 0.00457724 -0.00275108 
490 1 51.9935 1.34946 -1.4242 0.0184226 -0.0252022 0.0135732 
502 2 51.1621 1.56885 -0.778888 -0.109116 0.0610027 -0.162892 
492 1 53.115 1.58002 -0.724691 0.0279478 0.00162888 0.00242062 
480 1 54.2934 0.765629 -0.975847 0.00512936 -0.0145482 0.0237007 
478 1 56.0855 -1.2368 -1.34182 -0.0112563 0.0327615 0.000938735 
34 2 40.4175 7.85573 -6.36021 -0.0089096 0.0498644 -0.099952 
22 1 41.0242 7.17789 -5.71867 0.025172 0.0012651 0.016413 
36 2 41.6189 9.3337 -5.78683 -0.0364988 0.0391475 -0.0283765 
24 1 41.9522 8.17066 -5.30406 -0.00387016 -0.00262469 0.00131111 
12 1 43.1905 7.56824 -4.52938 0.0127264 -0.0144849 0.0274998 
10 1 45.1805 6.58936 -2.04278 0.0258922 -0.00489302 -0.00369674 
20 1 45.3311 7.89834 -2.84717 -0.0135857 0.0142461 0.00727419 
23 1 43.9299 8.37162 -3.42289 0.006119 0.00109802 0.000562095 
35 2 43.809 9.56294 -3.6103 -0.0512643 0.0626553 0.0122086 
32 2 46.3898 8.03279 -2.97019 0.00420229 -0.0213069 -0.0531877 
31 2 46.3423 6.74915 -0.688274 -0.0292768 -0.0849116 0.00619629 
19 1 45.9186 5.80112 -1.18463 0.00872886 -0.0161642 -0.0203137 
500 2 56.6607 -1.23084 0.92791 -0.021405 -0.0323975 0.0261361 
27 2 45.7016 1.82871 -0.967155 -0.0561282 -0.0875354 -0.0128468 
28 2 46.6485 3.84936 -0.189912 -0.00361218 -0.0545842 -0.0199639 
16 1 45.9456 4.33357 -0.825882 0.0562305 0.00643033 -0.0185336 
504 2 52.7741 2.15195 0.434494 0.126751 -0.0455047 0.00662755 
503 2 56.4602 1.70441 0.0841716 -0.000552001 -0.0236171 0.0428758 
491 1 55.4999 0.989964 0.0705091 0.0182454 0.0110589 -0.00854421 
488 1 55.8314 -0.473588 0.113206 0.00744723 -0.00899329 -0.00680168 
365 1 49.7343 -1.95683 9.88713 -0.00968853 -0.012383 -0.000218359 
394 2 51.1705 -0.290406 6.91748 -0.0942967 0.0563034 -0.0211352 
371 1 50.1755 -1.93615 8.37811 -0.00230654 -0.00315449 0.0269774 
393 2 49.8936 -3.12879 6.35568 0.027888 0.0635282 -0.00717035 
381 1 49.928 -3.13996 7.51048 0.0267775 -0.00513129 -0.00769473 
382 1 50.7184 -0.647069 7.78289 -0.00210152 0.00973677 -0.0248628 
390 2 50.3357 -5.17443 7.66169 0.00240182 -0.0299988 -0.0591205 
378 1 50.3125 -4.3046 8.27542 0.0114294 0.0221798 -0.00906308 
369 1 49.9888 -4.31962 9.7927 -0.0103828 -0.0219553 -0.0126804 
389 2 51.0508 -6.53319 9.914 -0.00640667 -0.0387069 -0.0263382 
366 1 49.3352 -0.788741 10.2775 0.0260926 -0.00165591 -0.0302518 
363 1 49.7642 -3.21549 10.6382 0.00158175 -0.00235394 -0.0374229 
377 1 50.7687 -5.5659 10.2997 -0.00919502 0.02757 -0.0200071 
383 1 49.2809 1.56609 10.2476 -0.00562106 0.00379407 -0.00506119 
372 1 49.5557 0.468004 9.3892 0.013528 -0.0109658 -0.0493759 
396 2 50.5103 1.7285 8.26268 -0.0207446 -0.146824 -0.0575356 
374 1 51.359 -5.36862 11.5955 -0.0300205 -0.000817794 0.00345875 
380 1 48.8553 1.36549 11.6394 0.00180245 -0.0140105 -0.00741137 
386 2 52.0314 -6.21766 11.5791 0.114967 0.0226046 0.054798 
364 1 49.3558 -0.925877 11.6695 -0.00193939 -0.0020118 -0.00089741 
247 2 41.6812 -2.62578 -11.9298 -0.094602 -0.00152145 0.0902048 
248 2 41.0712 0.0643784 -11.524 0.003281 -0.0365885 0.0595718 
361 1 50.3149 -3.13012 12.0528 0.0109536 0.00347452 -0.0176045 
387 2 52.5161 -1.77532 14.6972 0.0141175 0.0967631 -0.00868377 
388 2 50.073 -0.103902 15.7624 0.0710448 -0.0170779 0.0271589 
535 2 38.3632 -9.67114 35.571 0.0809687 0.0325534 -0.0503952 
367 1 51.4418 -4.09174 12.4331 0.033797 -0.0325037 -0.0153381 
385 2 51.8357 -4.49227 14.4471 0.11912 -0.0454708 -0.00503441 
373 1 51.3688 -3.71881 13.8609 0.0136976 -0.00979481 -0.0154859 
375 1 51.4968 -2.16503 14.2552 0.0103937 0.0240526 0.0159494 
523 1 38.0618 -10.6259 35.6501 0.00292072 -0.0145896 0.00533233 
362 1 49.8372 -1.94089 12.5536 0.0130281 0.00892583 -0.0154032 
368 1 50.1319 -1.70644 14.0087 0.0245337 -0.000442113 -0.0304651 
76 1 55.8464 11.8156 31.8545 0.0398267 0.00591932 -0.00907004 
376 1 49.6906 -0.444507 14.7062 -0.0086423 0.00686211 0.00345969 
370 1 49.0627 0.256572 12.5005 -0.00142282 -0.00241942 0.00786779 
96 1 57.4872 8.53127 31.5269 -0.00931263 -0.00721644 0.011421 
392 2 48.4382 2.35798 12.1834 -0.0368158 0.0137967 -0.0634924 
379 1 49.2109 0.746917 13.9772 -0.000589797 -0.0100857 -0.0163413 
391 2 48.9911 1.62647 14.4843 -0.0290062 -0.0270992 0.0119356 
107 2 55.323 8.03651 32.6702 -0.000663348 -0.0687205 0.0295417 
108 2 57.2952 7.48918 31.9272 0.0443186 0.113339 -0.0781653 
539 2 42.6464 -11.8749 34.6503 -0.0835108 -0.0705004 -0.0590307 
524 1 40.6534 -11.097 35.1511 0.0072263 0.000848193 0.02218 
514 1 39.2693 -11.4519 35.0569 0.000759674 0.00774055 0.00179121 
527 1 41.5911 -11.8695 34.3369 -0.0128637 -0.00595104 -0.016752 
536 2 40.805 -9.96515 35.2816 0.0559419 -0.0515238 0.047187 
71 2 41.0349 2.67826 34.8369 0.0479186 0.0522675 -0.0130561 
104 2 53.4381 9.11045 32.2757 -0.0101226 0.020952 0.0340428 
106 2 59.5726 8.02165 30.4934 -0.0476425 0.0485819 -0.0287212 
83 1 59.2436 10.137 30.6336 -0.00744894 0.0382082 0.00760122 
92 1 54.3006 9.78787 32.0889 0.0162763 0.0232831 0.0245621 
84 1 56.3928 9.44966 31.6001 -0.00948641 0.0129093 -0.00819184 
77 1 58.052 11.112 31.4489 -0.0137966 -0.0316194 -0.00343535 
94 1 58.8202 8.71791 30.9817 -0.00311229 -0.0123305 0.0257965 
82 1 54.4811 11.2881 32.1934 0.00341299 0.0206347 -0.0053826 
78 1 56.6665 10.916 31.5558 -0.00144556 0.00687395 -0.0118319 
95 1 55.3375 8.83909 32.3133 0.0193441 0.00820451 0.00696493 
529 2 36.6704 31.9011 -11.0034 0.00197363 -0.0600132 0.0729986 
517 1 36.3696 32.8477 -11.7748 0.0108857 0.0164169 0.0023587 
421 2 37.9938 16.5213 19.9108 -0.0107228 0.105625 0.038738 
409 1 37.9349 17.6394 19.7771 -0.0199165 -0.00348156 0.0101776 
411 1 38.9281 18.5283 19.2992 0.0025613 -0.0054637 0.0111369 
423 2 39.9114 17.7125 19.4837 0.0526958 0.0253596 0.00301556 
424 2 40.0034 19.8028 17.5061 0.0136161 -0.126563 0.0496914 
415 1 39.7284 22.2206 17.5836 -0.016254 -0.0331839 0.00363135 
427 2 40.086 22.5822 16.4545 -0.00595862 0.0815734 0.00445334 
318 2 46.973 25.6728 15.6468 0.00057299 -0.11702 -0.0657065 
306 1 46.6063 24.7605 16.1799 0.0154606 -0.00328205 -0.0241504 
317 2 49.5432 23.0448 15.6783 -0.0579585 0.0573635 0.00307785 
305 1 48.8878 23.1955 16.4713 -0.00906192 0.027921 0.0157635 
297 1 47.4052 23.6887 16.6578 -0.00477423 0.0123568 0.00384954 
302 1 49.2599 22.5268 17.5348 -0.00394837 0.0160581 -0.00352591 
314 2 50.3681 21.8652 17.427 -0.0272023 -0.0667488 0.0513078 
321 2 44.8751 25.8607 17.2758 0.0338686 0.00508308 0.0642795 
309 1 45.5144 25.0383 17.1417 0.010407 0.00490526 0.0167416 
538 2 42.9311 34.6376 32.6001 0.0444021 -0.00736996 -0.125865 
398 1 37.5603 20.6673 19.4328 -0.00936364 0.00302668 -0.0105512 
397 1 36.4084 19.7278 19.4581 0.000777612 -0.00448584 -0.00533762 
403 1 36.7663 18.2802 19.6849 0.015056 0.00595079 0.00956777 
404 1 38.8973 19.9735 19 0.00406519 0.00585837 0.00573415 
412 1 39.6609 20.7962 17.9999 0.00167526 -0.0357481 0.00613853 
406 1 38.662 22.8104 18.3327 -0.00176651 -0.0163881 -0.0124842 
400 1 37.7343 22.0384 19.1922 -0.00496903 0.0213925 0.00370629 
402 1 36.3089 22.6279 19.4792 0.0222598 0.000383676 -0.023486 
311 1 44.0845 23.5914 21.1849 0.00402587 0.00436357 0.0133809 
300 1 44.3885 23.9661 19.7084 -0.00938407 0.0188758 -0.00394485 
308 1 44.175 22.3666 21.8831 0.00908401 -0.00617662 -0.0103186 
294 1 45.4064 23.2379 19.273 -0.0289818 -0.00307856 -0.0357807 
292 1 45.691 22.1197 20.2073 -0.0221366 0.0205929 -0.00640137 
293 1 45.5702 22.8366 17.8251 0.003219 0.00821688 -0.00712515 
291 1 46.9971 22.6625 17.6475 -0.0392122 -0.00918874 -0.0239062 
289 1 47.618 21.9179 18.7101 0.00333337 0.00924881 0.0014424 
296 1 47.7371 20.496 20.4454 0.0257229 0.00439513 -0.0158822 
290 1 46.956 21.4922 19.8297 -0.00447594 -0.0252069 -0.00799392 
298 1 45.1117 21.4719 21.2212 0.00829297 0.0242328 -0.0114311 
323 2 43.7264 24.5215 21.777 0.00546315 0.00410971 -0.0203326 
320 2 43.8209 22.1022 22.8281 -0.0162857 0.0646365 0.0189899 
304 1 47.1447 20.2938 21.8162 0.0447852 0.0137477 -0.0150809 
319 2 45.6479 19.7109 23.0997 -0.00212938 -0.0148167 0.0767056 
307 1 45.7226 20.356 22.0423 -0.00492026 0.0133298 -0.0175517 
316 2 47.8958 19.8827 22.5567 0.000128701 -0.0123163 -0.0198079 
315 2 49.6837 19.1236 21.0657 -0.00254269 -0.0143885 -0.0206094 