ITEM: TIMESTEP
390000
ITEM: NUMBER OF ATOMS
576
ITEM: BOX BOUNDS pp pp pp
-1.2000000000000000e+01 8.4000000000000000e+01
-1.2000000000000000e+01 3.6000000000000000e+01
-1.2000000000000000e+01 3.6000000000000000e+01
ITEM: ATOMS id type x y z vx vy vz 
349 2 -3.10014 -2.10545 -0.956336 -0.07328 0.0634469 -0.0151447 
337 1 -2.22906 -1.51749 -0.821605 -0.0125419 -0.0172861 0.0122007 
351 2 -0.949678 -1.62981 -2.59083 0.158762 0.0476437 0.0122896 
339 1 -0.941535 -1.52568 -1.44878 0.00105902 -0.0065401 0.036704 
352 2 1.58384 -2.18635 -2.33157 0.0160612 -0.0483779 -0.0609782 
340 1 1.56718 -1.9565 -1.24718 -0.015051 0.0065554 -0.0197982 
332 1 0.307157 -1.79461 -0.651128 -0.0399098 -0.00698018 0.00682116 
355 2 3.86407 -1.93734 -1.02664 -0.042531 0.0273994 0.0517087 
343 1 2.75409 -1.79068 -0.709523 -0.0119351 -0.0131147 0.0180298 
331 1 -2.1984 -0.656839 0.445522 0.011512 -0.00887752 0.00600519 
354 2 -3.31251 1.81594 3.91311 0.0941177 0.0321044 -0.115315 
325 1 -0.906582 -0.782135 1.17958 -0.0122494 -0.0122154 0.0218939 
334 1 2.97763 -1.47865 0.753583 0.020382 0.000862297 0.00902354 
359 2 4.51143 -1.55565 3.90094 0.0994918 -0.0377122 0.00326909 
326 1 0.171668 -1.61867 0.930775 -0.030758 0.00157329 0.000477239 
328 1 1.53156 -1.18372 1.41238 0.0201399 0.00379901 -0.0446572 
347 1 3.87706 -1.49418 3.02773 -0.0174981 -0.00131271 -0.00395326 
344 1 4.10301 -1.25359 1.67867 -0.011989 0.0185706 -0.00456735 
356 2 5.11886 -1.60142 1.63252 0.0168818 -0.0285861 0.000256279 
336 1 2.41711 -1.30423 3.42892 -0.0328471 -0.0117412 0.0103734 
506 1 -8.46652 5.25043 3.49912 0.00349326 0.00466933 0.0192958 
510 1 -9.40542 5.22187 5.9092 -0.0178876 -0.0161333 0.000362576 
508 1 -9.22432 4.6535 4.62707 0.00465456 0.0102546 0.00202214 
527 1 -10.541 2.99976 6.85121 -0.00761731 0.0200765 0.0132401 
524 1 -10.4232 2.50328 5.46783 0.0346098 -0.0125661 0.000582766 
514 1 -9.76183 3.28702 4.33289 0.0413957 0.0209304 -0.00312686 
512 1 -8.08253 4.67898 2.21519 0.00764675 0.00355769 0.0227786 
458 2 -4.75049 -9.37538 10.8826 0.105731 0.0436413 0.0554812 
520 1 -8.35042 3.19888 2.24624 -0.00755779 -3.37994e-05 0.00301301 
523 1 -9.30989 2.48979 3.11619 0.000354096 0.0143835 0.032442 
532 2 -8.56263 2.631 1.28258 -0.00468136 -0.036181 0.0416918 
535 2 -9.81616 1.33543 2.95402 -0.0472253 -0.0272125 -0.0278651 
353 2 -4.08818 0.341412 3.30314 -0.0398458 0.0134423 -0.0299573 
350 2 -4.29767 0.346962 0.761841 0.0889618 -0.00107977 -0.0517616 
338 1 -3.4905 -0.388562 1.11797 0.00145255 0.0113293 -0.00432088 
341 1 -3.26456 -0.246604 2.6097 0.00553082 -0.0117872 0.00884947 
342 1 -2.49906 1.34362 4.1385 -0.0175315 0.00385703 -0.0149265 
333 1 -2.09922 0.252724 3.17058 0.00693721 -0.0200705 0.0192481 
345 1 -1.36433 1.27938 4.91098 -0.0202928 -0.00698725 -0.0273391 
327 1 -0.947729 -0.164529 2.5235 0.0267508 -0.034468 -0.0192129 
329 1 0.0420776 -0.221104 3.5194 -0.00672843 -0.0245931 -0.0186727 
330 1 1.30173 -0.842235 2.78995 0.00945736 -0.0104791 -0.00555408 
335 1 -0.108291 0.307967 4.83263 0.0102543 0.000486317 -0.0102383 
348 1 2.36928 -0.794784 4.85485 0.00356423 -0.00400817 -0.00550745 
346 1 1.04378 -0.138884 5.45112 -0.039467 0.0122365 -0.0107653 
360 2 3.27758 -1.45649 5.21666 0.0321044 -0.10585 -0.0411459 
507 1 -7.99399 6.89696 5.2976 0.0131728 -0.00331562 0.00825144 
505 1 -8.43067 6.7156 3.8079 -0.00494826 0.0274971 -0.0189241 
521 1 -6.7908 9.1548 4.35379 0.0223752 0.00127558 -0.0313621 
517 1 -8.00493 7.03478 1.63926 -0.00185663 -0.0253596 0.000143326 
511 1 -8.19976 7.87022 2.98018 0.00776534 0.000212936 0.00138356 
518 1 -7.83091 9.2126 3.34626 0.00336015 0.0130177 -0.00290127 
530 2 -7.50247 10.0822 2.67753 -0.0152985 0.0118612 -0.0755599 
529 2 -7.34021 7.42044 0.72684 -0.0159603 -0.065829 0.0640899 
519 1 -7.47618 5.80415 1.52837 0.0302897 0.000720265 -0.00598794 
531 2 -6.89996 6.03028 0.426085 -0.0365275 -0.0710391 0.0858803 
513 1 -6.99151 8.08577 5.32601 -0.000188868 0.00063736 0.00583079 
533 2 -5.99383 9.79482 4.7084 0.0752198 -0.0192629 0.0235771 
445 1 -6.06975 -11.1809 10.8147 -0.0142275 -0.0212741 -0.0100495 
522 1 -6.49284 7.65468 6.60456 -0.0204571 0.0179707 -0.00259335 
457 2 -5.71084 -10.7607 9.96806 0.0230542 -0.0246681 0.0404451 
179 2 4.52344 7.65981 2.77077 0.108044 -0.0535494 -0.03299 
509 1 -8.27222 6.06474 6.30977 0.0216472 -0.00788113 -0.00490065 
516 1 -9.52975 4.18698 6.96939 0.00356737 -0.0052677 0.00578298 
539 2 -10.3624 2.0299 7.35003 0.05944 0.0133006 0.0139517 
515 1 -7.56464 5.8731 7.60367 0.0331134 0.00763438 0.00402457 
528 1 -8.61261 4.09374 8.10533 -0.00726756 -0.0168815 0.00408522 
526 1 -7.36151 4.84425 8.60313 0.00214611 -0.00211722 0.0142806 
538 2 -6.78756 5.42349 9.39583 -0.0236135 0.0197346 -0.0733282 
216 2 -1.07368 1.73828 5.8808 0.0917398 -0.0194636 0.0457702 
358 2 0.893388 -0.00485306 6.43441 -0.0689735 -0.0647239 -0.0478841 
525 1 -6.23606 6.95004 7.806 -0.0118715 0.0152751 -0.0106203 
534 2 -5.42114 7.50386 8.41351 0.0216497 0.0302215 -0.0526495 
105 2 7.04163 -10.2088 6.23158 0.0131382 0.0190378 -0.0404438 
536 2 -10.6157 1.47193 5.48805 0.0478609 -0.00413517 -0.0163786 
446 1 -5.19268 -9.55183 11.8859 -0.00628044 -0.0109128 -0.0413545 
443 1 -6.36455 -10.2735 16.6992 -0.00103085 -0.0300088 -0.0151417 
437 1 -6.57263 -10.8811 15.4041 0.00470704 -0.0113062 -0.0122147 
456 1 -7.78419 -11.5679 17.5006 -0.0182405 -0.0123717 -0.035923 
462 2 -4.99372 -7.87396 14.5549 -0.0685169 0.0407437 -0.0278099 
450 1 -4.75179 -8.71973 15.181 -0.0142505 0.0249664 -0.00136401 
461 2 -3.3803 -8.25738 12.9415 -0.0644423 0.0132876 0.0108301 
453 1 -5.32898 -9.39294 16.4322 0.021836 -0.0178128 0.002917 
435 1 -5.93149 -10.4234 14.1867 -0.0199372 -0.028438 0.00450322 
449 1 -4.12483 -9.26608 12.7285 -0.00487374 -0.00790028 -0.0133632 
441 1 -4.61149 -9.67732 14.016 0.0141151 -0.0087755 -0.028162 
433 1 -6.72676 -11.187 13.2832 0.0146582 -0.00210836 0.000162534 
439 1 -6.09404 -10.7911 12.1169 0.00870616 -0.0120168 -0.0083181 
468 2 -8.09763 -11.7746 18.5583 0.0146569 -0.00681099 0.0702655 
454 1 -6.91399 -10.6111 18.1313 0.00910696 -0.0151903 -0.00184331 
466 2 -6.0834 -10.6561 18.9166 0.0393244 -0.0340724 -0.00832632 
465 2 -5.82761 -8.70446 17.2398 0.042687 -0.0251192 -0.0335503 
136 2 -3.80566 17.88 -3.76739 0.0244662 0.106605 -0.00724699 
124 1 -3.57712 18.4105 -4.74306 -0.0163163 0.0123813 -0.00989722 
140 2 -5.9957 21.116 -7.01784 -0.0541967 -0.0237067 0.0418564 
143 2 -4.89752 23.0099 -7.79385 0.0356934 -0.00413879 0.0860576 
144 2 -3.18941 23.8469 -9.03452 -0.00283903 -0.0724216 0.0327505 
131 1 -4.56168 22.0188 -7.62275 -0.00759646 0.00447788 -0.0227813 
142 2 -0.74543 24.4073 -9.13758 0.00658966 -0.00668724 0.0495772 
128 1 -4.86586 20.8441 -7.02255 0.0166791 -0.0419358 0.00556795 
132 1 -2.49108 23.0142 -8.64597 0.00446312 0.0240259 -0.00146468 
118 1 -4.27567 19.692 -6.47029 -0.00245412 -0.00311105 0.0207767 
112 1 -3.01097 19.7687 -6.82934 -0.00164142 -0.0021893 0.0184688 
113 1 -1.02342 21.1798 -7.63066 0.00638249 -0.0109856 -0.00789473 
111 1 -0.186335 20.0849 -7.42663 -0.00956824 0.0148361 -0.0380379 
119 1 -0.452119 22.3841 -8.1739 0.00908231 0.00429414 0.0171711 
114 1 -2.31711 20.8157 -7.71496 0.0124605 -0.00624527 -0.00331678 
130 1 -1.22809 23.4203 -8.73607 0.0219372 0.0168886 0.0492502 
120 1 -3.19316 21.9172 -8.03383 -0.013705 -0.00171947 0.00489346 
127 1 -4.58874 18.9008 -5.5494 0.0248938 0.0430325 -0.0148456 
117 1 1.29885 20.307 -7.62966 0.00967149 -0.0149782 -0.0109213 
129 1 0.895068 22.3159 -8.46037 -0.0116921 0.00995099 0.020059 
125 1 1.77911 19.6563 -6.46894 -0.0176768 -0.0187175 -0.0106588 
126 1 1.97712 21.5771 -8.18464 -0.0108203 -0.0159762 -0.000978844 
138 2 3.03641 21.7151 -7.7633 0.0651689 0.0261578 -0.00197204 
141 2 0.974403 23.0078 -9.72155 -0.0518358 0.0204907 0.0311566 
137 2 2.85129 20.1808 -6.52991 0.0383768 0.033161 0.0502159 
121 1 0.107195 16.9554 -4.99279 -0.00854135 -0.0102309 -0.00528744 
123 1 -1.19952 17.4454 -4.47363 0.0132149 0.000124196 -0.0129834 
133 2 0.545513 15.8447 -4.84033 0.0526592 -0.0135133 -0.0343235 
139 2 -5.56134 18.3857 -5.56945 0.00969562 0.0360741 -0.00512129 
109 1 -0.546551 18.9843 -6.62613 -0.00460751 -0.0318517 -0.00159815 
110 1 -1.89345 18.9312 -6.32 0.00628471 -0.00977485 0.00996039 
115 1 0.539466 18.0508 -5.96299 0.0221644 -0.0149046 -0.00984784 
116 1 -2.19462 18.4799 -4.9596 0.00765604 0.014918 -0.0121043 
134 2 2.76527 17.9943 -5.47989 0.0661864 -0.0933981 -0.0394494 
122 1 1.86452 18.3511 -6.01273 0.0149871 0.0131137 0.00678659 
460 2 -4.4942 33.3538 10.3232 -0.0191154 0.0634232 -0.011048 
447 1 -6.17342 35.5975 10.785 0.0109033 -0.0293792 0.00650217 
459 2 -5.76209 35.2398 9.80002 0.0553267 -0.0305452 -0.0227058 
451 1 -4.54248 33.0818 11.4348 0.000983917 0.0104927 -0.00470113 
448 1 -5.50425 33.9051 11.892 -0.00571716 0.0242652 0.00310982 
440 1 -6.3762 34.8107 12.0016 -0.0131804 0.0015775 0.00933649 
282 2 1.05922 17.4899 17.7033 -0.0157608 0.0139012 0.0726791 
135 2 1.23891 18.2022 17.4759 -0.0406082 -0.000503161 -0.0226096 
452 1 -6.87472 32.8637 16.2182 -0.00551024 0.0143612 -0.00382915 
442 1 -7.05211 33.4098 14.784 0.0319384 0.00589945 0.000931632 
464 2 -7.11301 32.6159 14.1886 -0.0333879 0.0140112 -0.0668937 
436 1 -7.09341 34.6388 14.5375 0.00930029 -0.00233186 0.00486125 
455 1 -7.3207 33.7938 17.226 -0.0328188 0.00224286 0.000310632 
467 2 -7.48678 33.4723 18.2117 0.0180743 0.0484808 0.011178 
444 1 -7.43148 35.1963 16.7705 -0.00489647 0.0063233 0.00636392 
438 1 -6.77749 35.6948 15.6271 0.0128994 0.0229916 0.0103715 
504 2 -5.07647 13.7844 21.4481 -0.0971633 -0.0574836 0.117827 
71 2 -5.18881 14.0489 20.9504 -0.0726816 0.0584688 -0.136445 
463 2 -4.00458 32.2482 12.016 0.0475891 0.0433396 -0.00804469 
434 1 -7.03891 35.3454 13.2574 0.000443663 -0.00153233 0.00433795 
537 2 25.5047 -9.59408 4.71411 0.0603157 -0.0807601 -0.0708026 
481 1 23.5345 -1.44548 11.0101 0.00276244 -0.00113642 0.0195347 
108 2 26.3195 -0.0713156 12.0578 -0.0124455 0.0119702 0.0305328 
493 2 24.6739 -1.70528 10.6178 -0.0954939 0.0116766 0.0286212 
28 2 30.6545 10.6949 9.96343 -0.015223 0.0662269 -0.0118369 
483 1 22.3282 -2.24439 11.4072 -0.0129565 0.00838337 -0.0089172 
27 2 32.3759 11.6442 11.32 -0.00596063 0.000463586 -0.0954967 
540 2 24.9696 -9.12711 5.38357 -0.0919307 -0.0718825 -0.10574 
19 1 28.9453 9.53389 11.2922 0.0160704 0.00928403 0.0173157 
31 2 28.0474 9.12294 10.6757 -0.059092 -0.0589601 0.0201159 
16 1 30.1929 10.0009 10.9608 -0.0159325 0.00793709 0.0132058 
177 2 34.2948 8.86612 -1.47778 -0.045569 -0.0401496 -0.0143762 
8 1 31.0175 10.1642 12.0318 -0.030478 0.0147041 0.0270265 
496 2 20.7749 -4.09381 11.9363 -0.000176171 0.0311642 -0.0847193 
32 2 26.8784 7.54414 12.1314 -0.0104134 0.0172886 -0.090415 
469 1 22.8597 -0.415717 13.0206 0.00846372 -0.00189203 0.00705948 
497 2 22.9058 2.95495 12.8596 0.00740131 0.0555778 0.00291762 
476 1 21.5294 -2.12664 12.5925 0.0017145 0.012999 -0.00546714 
470 1 21.8856 -1.182 13.6383 -0.01756 0.00504726 0.0184626 
472 1 21.1411 -1.09148 14.9727 -0.00836911 0.0255009 -0.00513647 
484 1 20.6635 -3.23221 12.7728 -0.0105844 -0.00634348 -0.00835578 
487 1 20.013 -3.40994 14.0435 0.0246633 -0.0213079 -0.026562 
478 1 20.4471 -2.49298 15.0456 0.0449656 0.0328663 -0.0305744 
499 2 19.2259 -4.38826 13.9335 -0.0573671 -0.019524 -0.058214 
503 2 20.8502 -3.47374 15.6498 0.0322294 -0.0552099 -0.0710967 
482 1 25.227 0.177985 12.3684 0.000262583 0.00494729 -0.00838487 
494 2 26.6339 1.14959 13.4801 -0.0943527 0.0532123 0.13365 
180 2 24.1951 10.4127 31.6139 -0.00612091 -0.020409 -0.025231 
20 1 27.2803 8.31192 12.7637 -0.00671858 -0.000540792 0.0149873 
473 1 21.0765 0.144659 15.7129 0.000975483 -0.000329054 -0.0149255 
474 1 21.0966 0.576413 17.2698 -0.0059362 -0.01375 -0.00475352 
480 1 22.4566 0.987197 17.4357 0.0388358 0.0303 0.00417683 
471 1 22.4513 1.03077 13.3989 -0.00578731 -0.00137041 -0.0265069 
477 1 23.3696 2.01161 12.9408 -0.00443024 -0.0161576 -0.00484096 
479 1 21.3321 1.30683 14.6974 -0.0388691 -0.00872531 -0.00895632 
491 1 21.7221 2.71651 15.1722 0.0295299 0.0160699 0.00736801 
500 2 20.6777 3.51267 15.5381 0.00610279 0.050915 -0.0114559 
501 2 20.4361 1.39327 13.9436 0.0584277 0.0830287 -0.0183029 
488 1 22.8772 3.29472 15.0725 -0.0135254 0.0250769 0.016209 
498 2 22.8514 4.48 15.4339 -0.0843794 0.0247933 0.0160282 
489 1 24.2053 2.56161 15.2371 0.0256845 -0.00378171 -0.00846146 
485 1 25.3834 1.03303 13.178 -0.0040278 0.0243792 0.00367331 
486 1 24.493 1.87286 14.0095 -0.00513569 -0.00225515 0.00186478 
492 1 24.6221 2.218 16.5864 -0.00176455 -0.00592449 -0.00806513 
490 1 23.7625 1.56713 17.3456 -0.0315282 0.0049447 0.00768925 
502 2 25.7149 2.11271 16.1574 -0.0337903 -0.0303683 0.0665913 
34 2 29.7982 5.02467 16.3494 0.0550235 -0.00563363 -0.0555242 
35 2 26.1726 7.80411 14.6246 0.00128513 -0.0403873 -0.0287935 
36 2 27.4141 5.92527 15.4269 -0.0773015 -0.0053745 0.0992768 
12 1 28.0737 7.78598 14.9332 -0.00231917 0.022801 0.0139285 
22 1 29.4825 5.97726 16.2222 0.0105371 -0.0110225 0.0201689 
24 1 28.2828 6.54645 15.6667 0.00324829 -0.0346635 0.01668 
23 1 27.0683 8.62976 14.1999 -0.0211928 0.0253153 0.00388988 
6 1 29.3894 8.45906 14.5844 0.000154217 -0.00713346 0.00210603 
4 1 29.4823 9.4593 13.7238 -0.0113194 0.0234211 0.013877 
14 1 33.8677 10.1922 15.8649 0.0229907 -0.00519083 0.00358667 
30 2 31.8396 8.65482 19.0106 0.0531677 0.0210933 0.0818234 
17 1 33.1495 9.76941 16.8414 -0.00756556 -0.00243777 -0.00286362 
21 1 31.1609 7.24448 17.8415 -0.0303722 0.0104931 0.00669272 
18 1 31.928 8.46961 18.0157 -0.000964698 -0.012016 0.0216398 
11 1 30.1205 7.24686 16.6678 -0.0163188 -0.000946719 -0.00245447 
9 1 32.0472 9.10674 16.8707 0.0196249 0.00933714 -0.0214153 
5 1 30.1 8.32591 15.7839 -0.000375305 0.00273444 -0.0164938 
3 1 31.2242 9.32829 15.8222 -0.0497735 -0.0258565 0.0187206 
1 1 31.67 9.52104 14.4433 0.0264828 -0.013285 0.0164134 
7 1 33.1381 10.0493 14.6671 0.00735724 -0.0155041 0.0367747 
29 2 33.2374 10.0139 17.7968 0.0754019 -0.00238233 0.000524606 
10 1 28.6252 9.14537 12.5794 0.00343682 0.0184196 -0.0174652 
13 1 33.147 10.8494 13.3815 -0.0101195 -0.0125243 -0.0202541 
2 1 30.7511 9.92333 13.6323 -0.0176001 -0.025621 -0.00291354 
33 2 31.6418 6.46476 18.2279 0.027642 -0.0315059 0.0647503 
164 1 26.236 11.0789 27.8896 -0.00547134 -0.00903875 0.0100476 
176 2 26.6844 10.2247 27.2531 -0.00422339 -0.026737 0.00275369 
167 1 25.5792 11.1815 29.248 -0.00165677 -0.0216553 0.0104929 
168 1 24.3626 11.4219 31.5056 -0.00618246 0.0111014 -0.0390309 
26 2 34.7464 10.7394 15.9873 0.0799985 0.00080041 0.0533616 
25 2 34.1037 11.2024 12.8245 -0.120906 -0.0365306 0.133623 
15 1 32.1132 11.11 12.3411 0.00374763 0.00475755 0.0164278 
70 2 34.3985 -11.5768 35.2626 0.0487923 -0.0266329 0.0799263 
475 1 24.0326 -0.60871 12.1945 0.0274646 -0.0084805 0.00414824 
394 2 29.3434 23.008 -6.3879 0.0453402 0.079686 0.0618824 
191 1 33.6403 29.9831 -11.4571 -0.0196126 -0.0262786 0.011446 
185 1 32.1456 30.1604 -11.7598 0.0186063 -0.0235136 0.0145412 
199 1 27.7463 30.6978 -9.8592 -0.0229521 -0.0421163 0.0280954 
211 2 27.0977 30.8846 -9.04152 0.0582169 -0.0360017 0.0348788 
212 2 29.252 33.0861 -8.39276 -0.0230357 0.00865487 0.0139379 
190 1 29.1053 31.2508 -9.93898 -0.000860678 -0.00479712 0.0162937 
186 1 31.3892 31.1367 -10.8438 -0.0167694 0.0359736 -0.00545171 
202 1 34.3401 30.6562 -10.3162 0.0319465 -0.0248251 -0.000656992 
215 2 31.8943 33.4926 -9.04256 0.00050862 -0.0508147 0.0824143 
203 1 31.0789 32.6985 -9.09978 -0.016809 0.0158949 0.0101929 
192 1 32.1669 31.8081 -9.68191 -0.0301097 0.0287074 -0.00628194 
204 1 33.4908 31.4279 -9.6491 0.0132119 -0.00781835 0.014945 
200 1 29.6933 32.4367 -9.1715 -0.0147525 0.0022144 0.00599102 
184 1 30.0095 30.8739 -10.8585 0.00115602 0.00962706 -0.00196457 
214 2 35.3231 30.8115 -10.3294 -0.0293011 -0.0678367 -0.0511288 
421 2 34.7035 20.0146 -9.98821 0.0600806 -0.093615 -0.120276 
196 1 27.077 30.1018 -10.966 -0.0108651 -0.010107 -0.00648207 
188 1 28.2339 29.4823 -11.8336 -0.0236405 0.00885591 0.00308009 
208 2 26.1941 29.9822 -11.2643 0.0208618 -0.0449933 -0.0222148 
57 1 35.7145 35.2348 -10.1398 -0.0163724 -0.028104 0.0180041 
213 2 35.315 29.2611 -11.7319 -0.0197771 0.0336749 0.0446498 
47 1 35.5455 34.8882 -11.6199 0.016546 0.0220375 0.00904567 
66 2 34.6267 35.5881 -9.84016 -0.0430143 0.0504721 -0.0392374 
201 1 34.2872 28.9004 -11.9745 0.00870291 0.0128018 0.00549578 
572 2 26.9959 31.3231 11.6817 -0.0388784 0.135769 -0.0588156 
56 1 35.8194 33.2176 32.5403 0.0250428 0.0210685 0.00685695 
237 1 23.7148 22.0106 17.4539 -0.0309513 0.00614631 -0.00986013 
250 2 21.1583 22.5839 15.7004 -0.129678 -0.0625039 -0.077485 
238 1 21.286 22.3147 16.7082 0.0024691 0.0118004 -0.013558 
227 1 22.2837 21.7024 17.8352 0.00682816 0.0231604 -0.00758624 
252 2 19.2171 22.9986 16.9554 0.151878 -0.0423902 0.0425379 
249 2 23.9034 22.87 16.5711 -0.0525687 -0.0216579 -0.0304121 
246 2 25.5926 21.2066 17.4919 0.0129743 0.0236745 0.0458236 
234 1 24.5342 20.9118 17.86 0.0198259 0.0082151 0.0276362 
568 2 22.7149 30.2646 13.3348 -0.112591 0.0529326 0.00704748 
555 1 23.2717 28.4628 15.5318 -0.0231943 0.00660762 0.0172958 
553 1 23.8855 28.4332 16.873 -0.0269728 -0.0139218 0.00368467 
565 2 22.9978 27.7522 17.2366 0.0160736 -0.0399647 -0.066941 
567 2 22.9982 27.2682 15.7138 0.0671654 0.0128373 -0.111681 
556 1 23.5275 30.4669 13.888 0.0140545 -0.00495307 -0.0147578 
547 1 24.5913 29.2752 17.6764 0.0381699 -0.00442742 0.0128858 
548 1 23.8087 29.6799 15.0422 -0.0085591 0.00531348 0.00671906 
542 1 25.0238 30.0667 15.7987 0.017622 0.00495559 0.00724969 
541 1 25.7206 29.8303 17.2004 -0.0120025 -0.020138 -0.0042116 
559 1 24.5881 31.2041 13.2575 0.0107961 0.00693289 0.00201859 
543 1 26.4006 30.7341 17.9129 -0.0292849 -0.00534301 0.0145472 
544 1 26.0922 31.0654 15.1625 -0.00296445 0.0139572 -0.0019671 
550 1 25.9473 31.3719 13.7347 0.0118474 0.021473 -0.00967299 
563 1 28.473 31.5713 13.5457 -0.00349713 0.011895 -0.000929742 
552 1 28.5172 31.7042 15.0619 -0.00664938 0.00827713 -0.00731094 
545 1 27.5353 31.0406 17.164 0.0228516 0.0320866 0.00782936 
546 1 27.331 31.5502 15.804 -0.0199413 0.0334524 0.00313935 
564 1 29.8371 31.9738 15.7544 0.0147539 -0.0276109 0.0315966 
562 1 29.8998 31.4658 17.0335 0.0133502 -0.00583355 -0.00786285 
551 1 28.6404 31.3456 18.0203 -0.00874131 0.0149793 0.00414279 
575 2 29.1062 30.8476 13.0729 -0.0595381 -0.0391439 -0.0188046 
560 1 27.2004 31.6054 12.8409 -0.00688201 -0.00491983 0.00363363 
574 2 30.9492 31.4944 17.1639 0.0187869 0.0364058 -0.112525 
576 2 30.7869 31.7084 15.1108 0.0803149 -0.0316594 0.0587429 
229 1 23.4572 17.548 22.6716 0.0110397 -0.0160923 0.0237513 
241 2 23.6936 16.402 22.9485 -0.0628468 -0.0338735 -0.0297588 
240 1 20.0778 22.495 17.4698 -0.00389284 -0.00173858 -0.026771 
231 1 22.312 17.7752 23.2636 -0.0227706 0.00839386 0.00103647 
221 1 21.8697 20.8576 19.05 -0.00386114 0.000680257 0.0260957 
222 1 20.5757 20.905 19.3466 0.00784964 0.00190463 0.0178967 
228 1 19.8908 22.0756 18.8255 0.0307713 -0.00177961 -0.00237294 
251 2 18.3631 23.1389 18.4261 0.0435758 0.0679347 0.00335484 
239 1 18.5313 22.5117 19.3775 0.0173835 -0.00351811 -0.00788358 
236 1 18.5134 21.8929 20.487 -0.020211 0.00796554 -0.0304129 
248 2 17.4157 22.1148 20.7848 -0.0507627 -0.025134 -0.0122272 
226 1 19.4981 20.751 21.3359 0.00851844 -0.0196058 0.0371128 
220 1 20.4203 20.0471 20.6568 0.00448544 -0.00341995 -0.00294949 
235 1 19.7387 21.244 22.724 -0.00859317 -0.00409722 0.0075101 
247 2 19.4796 22.1194 23.106 0.00732791 -0.00818608 -0.00578559 
218 1 21.2891 18.9746 21.3881 0.00813371 -0.00127376 -0.00264782 
232 1 20.773 20.4515 23.3255 -0.0183036 -0.00771589 0.0082432 
219 1 22.7675 19.7172 19.5109 -0.00827632 0.0156185 0.00859051 
217 1 22.5926 18.8451 20.7494 0.00195057 0.0237445 0.0148098 
224 1 21.4606 19.1192 22.8145 0.000274962 -0.000931647 0.000297432 
223 1 23.8171 18.467 21.424 -0.0282902 -0.00302104 0.00599248 
245 2 26.3661 19.3626 19.563 -0.0908753 0.0252358 -0.0513505 
233 1 25.3379 19.252 19.7128 -0.00682409 0.0369761 -0.0240633 
230 1 24.9215 18.0156 20.6597 -0.0172345 0.000601252 -0.0249783 
242 2 25.9533 17.7331 20.625 -0.00473735 -0.0355841 -0.0246935 
225 1 24.1796 19.9694 19.1386 -0.00230284 -0.00477869 -0.0137526 
554 1 24.7791 29.1137 19.0767 0.0321128 -0.00807408 -0.00115617 
549 1 26.4514 30.8549 19.3978 -0.0276257 0.0167983 0.0105648 
566 2 24.7761 28.2779 19.3416 0.025991 -0.0188794 -0.0713282 
569 2 25.9653 29.828 21.2174 -0.020863 -0.0368772 -0.0127821 
557 1 25.6407 29.7963 19.9917 0.00504333 0.00697195 0.0164076 
561 1 28.8203 30.7628 19.4179 0.02598 0.00453824 0.00161033 
573 2 29.6582 30.0602 19.7759 -0.0163533 -0.0962918 -0.0470908 
570 2 27.4348 30.5651 21.182 -0.00139189 -0.0107986 0.0427877 
558 1 27.6804 30.8598 20.2257 -0.0172655 -0.0124308 0.0258184 
243 2 21.8046 17.2279 23.9238 0.0497301 -0.0412152 -0.0545786 
151 1 25.5614 17.3955 28.5281 0.00972553 0.00547912 -0.0136101 
145 1 25.5062 16.0631 29.1053 0.0232413 0.0247494 0.0299653 
146 1 26.2017 14.9541 28.3322 0.0179353 0.0187308 -0.0126215 
163 1 27.4967 12.9474 26.5469 -0.000548134 0.00418682 -0.02561 
160 1 26.9159 14.147 25.9149 0.00467166 0.00176958 0.0238862 
152 1 26.3324 15.0464 26.7204 -0.0201086 -0.0186758 0.0093538 
172 2 26.9205 14.3056 24.8221 -0.0463238 0.00545781 0.0538171 
159 1 25.9295 16.3848 26.3932 -0.0162863 -0.013498 -0.00354231 
169 2 26.0328 16.3604 25.2813 -0.0171629 -0.0985361 0.0744851 
148 1 26.0099 13.6647 28.3932 0.00211402 -0.00825122 -0.0237603 
154 1 26.6347 12.5561 27.5634 -0.0187021 -0.00353585 0.00988118 
175 2 28.244 12.1143 26.3701 -0.0183495 -0.0124418 0.0301466 
150 1 25.618 13.3925 29.9341 0.000759305 0.0155275 0.00879292 
157 1 26.3708 17.4795 27.3803 -0.0237827 0.00126704 0.005373 
244 2 20.4012 20.2499 24.3254 -0.0778202 0.00772193 0.00357299 
158 1 25.2594 18.5662 29.4931 0.0291437 0.00672295 0.011015 
170 2 25.0339 19.3661 29.0217 -0.00889193 0.0742068 -0.0387896 
171 2 26.697 18.4911 27.1968 -0.0669046 0.00102464 -0.0344753 
153 1 24.7389 17.043 31.0699 0.0205642 -0.029991 -0.010784 
162 1 24.2265 16.2611 32.2336 0.0116506 -0.0106958 0.00236851 
165 1 23.9169 14.9522 32.8495 0.0246149 -0.0114641 -0.0173395 
174 2 23.478 15.3609 33.8 -0.0695281 -0.00459041 -0.0502701 
147 1 24.8279 15.7297 30.2976 -0.0241599 -0.0114948 -0.0155864 
149 1 25.2782 14.4991 30.7968 0.0169962 -0.00349623 -0.0296542 
155 1 24.5316 13.8728 31.9091 0.00906513 0.0292333 0.00198343 
166 1 24.0186 12.5856 32.1672 0.00225177 -0.0139753 0.0106009 
182 1 29.6278 30.0251 35.9982 0.0122871 -0.0032476 0.00443315 
68 2 34.3253 32.8067 31.0908 -0.0414803 0.0420515 -0.0261745 
161 1 25.0907 18.512 30.8294 0.0202223 0.00909465 0.00806431 
173 2 24.9777 19.224 31.4342 -0.0159508 0.000760792 -0.0441554 
205 2 28.2599 28.0369 33.4457 0.0303339 0.108293 0.0467996 
193 1 28.7291 28.4559 34.2921 -0.000824819 0.0168908 0.0117024 
187 1 30.0149 28.7418 34.0123 -0.00526507 0.000257091 -0.00680371 
195 1 27.9186 28.2235 35.4661 0.0232547 -0.00441577 0.000392415 
207 2 26.9661 27.2915 35.6136 0.00786606 0.0161783 -0.0241269 
178 2 23.0376 12.1248 32.9908 -0.0281423 0.0650847 0.0523473 
206 2 30.6407 28.0906 31.5198 -0.0428318 -0.0773594 -0.0917384 
156 1 25.1268 11.9807 30.2222 0.00758059 -0.011842 0.00771363 
194 1 30.8663 28.4805 32.5961 -0.0102488 -0.0292929 -0.0226423 
197 1 32.0779 28.5334 33.0823 -0.0162945 0.00194506 0.00583834 
181 1 30.4571 29.5762 34.7629 0.0113553 0.0327926 0.00413243 
189 1 32.5164 28.846 34.1742 -0.000266975 -0.000797846 -0.0100782 
209 2 32.7092 28.1512 32.1334 0.0495278 0.0591029 0.0413279 
183 1 31.736 29.5681 35.1829 0.00099976 0.0123121 0.0106086 
198 1 33.9805 28.8914 34.6078 0.00370879 0.0244172 -0.00179133 
59 1 34.3616 33.0729 32.1202 0.00966773 0.00821427 -0.0246148 
571 2 24.1022 31.0488 12.2154 -0.0103393 -0.0190698 -0.0603612 
58 1 35.0359 35.5353 35.3162 0.00871778 -0.00918511 0.0168816 
60 1 35.8019 35.4372 33.997 -0.00191688 -0.00804426 -0.00531068 
98 2 55.9357 -0.514066 3.31466 0.145787 -0.0331805 -0.0370735 
79 1 57.1633 -0.364326 5.58561 0.000277004 -0.00063048 -0.0167057 
85 1 58.0587 -1.52787 6.0773 -0.0185512 -0.00722461 -0.00523138 
86 1 56.2782 -0.125085 4.44285 0.00356488 0.0161935 0.0193556 
97 2 57.4913 -2.37004 5.44557 0.00689657 -0.0429965 0.024827 
102 2 52.6156 1.62248 6.68824 -0.0206707 0.11369 -0.0412372 
84 1 57.6778 4.57246 8.76283 0.00698543 0.0256631 0.00230581 
73 1 57.0005 0.656195 6.59044 -0.00826106 0.00344604 0.00500175 
87 1 59.2662 -0.994679 6.43913 -0.00939383 -0.0129616 -0.0217328 
304 1 58.9215 -3.46384 8.16294 -0.00557614 0.0127413 -0.00186112 
89 1 54.9373 0.341665 4.72543 -0.00389094 -4.13074e-05 0.0102281 
101 2 54.0937 0.225488 4.13762 0.0361733 0.0138334 0.0845308 
290 1 57.7693 -2.41216 10.2346 0.00199327 -0.000183735 0.0167928 
315 2 55.9822 -3.70486 7.79974 0.019348 0.0272502 -0.0245712 
289 1 56.7444 -2.15915 11.1554 0.0216086 0.0107576 -0.024024 
302 1 54.463 -2.65235 11.7221 -0.00337411 0.0106833 -0.0138408 
295 1 55.6924 -3.13283 10.8549 -0.0185952 -0.0289741 -0.00152523 
301 1 55.3215 -3.26138 9.50821 -0.0267647 -0.00328863 -0.0114256 
296 1 57.844 -3.43073 9.17764 0.0135748 -0.004245 -0.0243567 
303 1 56.5502 -3.41517 8.68583 -0.00434522 -0.00885587 0.01064 
313 2 54.2587 -3.74738 9.23307 0.0709374 -0.00616415 -0.0344229 
292 1 59.0093 -1.73206 10.4234 -0.0166756 0.017617 -0.009248 
316 2 59.1351 -3.74398 7.08704 0.0389446 0.0406376 -0.00659728 
90 1 53.8502 1.71965 6.48436 0.0235476 0.00216471 -0.00767667 
93 1 53.9289 2.88662 7.35868 -0.0203266 0.0118797 -0.0106436 
107 2 58.6424 6.61493 8.7366 0.0758619 -0.0268515 -0.0270194 
81 1 55.0113 1.05206 5.98222 -0.0321892 -0.00356591 -0.0100386 
74 1 58.176 1.60239 6.73043 -0.014337 0.0309815 -0.00168267 
94 1 55.1052 4.42081 9.00788 0.0151644 0.0128568 0.00921062 
95 1 58.724 5.53312 8.28397 -0.019052 -0.00116598 0.00386136 
75 1 56.0442 1.48362 6.78701 -0.00374056 -0.0212846 -0.00320016 
77 1 56.2257 2.52155 7.81169 -4.37739e-05 0.00192554 -0.007349 
78 1 57.3789 3.29359 8.05467 0.0182225 0.00734147 0.0186366 
92 1 59.6698 5.00161 7.6261 -0.0212824 0.0194302 0.0149653 
76 1 58.2199 2.98717 7.12765 -0.00972202 0.00923959 -0.00148237 
96 1 56.3006 4.77004 9.04097 0.00996882 0.0323506 0.0258207 
106 2 55.1763 5.78525 9.81981 0.0242274 0.0342046 0.0104858 
83 1 55.1414 3.44726 7.73857 0.0121493 0.00873633 0.0113186 
82 1 59.5382 3.57614 7.08296 -0.00689714 -0.0266514 0.00486478 
80 1 59.2632 0.629487 6.63406 0.0108091 -0.0106138 0.00263069 
294 1 59.2422 -1.48566 11.8483 -0.0145683 0.0179545 0.00256614 
314 2 53.6313 -2.05033 11.1613 0.0601088 -0.0482662 -0.0311502 
307 1 59.8756 -2.62093 8.39035 -0.0222366 -0.0301969 -0.00179703 
388 2 59.2588 -6.92719 16.802 0.0398571 0.00175468 0.0424494 
317 2 54.4516 -3.13588 13.8731 -0.0424377 -0.148742 0.108224 
291 1 56.9476 -1.46023 12.3676 0.0123728 0.0188682 0.0133356 
357 2 55.7982 -10.5208 30.3031 -0.0966355 -0.0173855 0.0434515 
305 1 54.7653 -2.47488 13.2193 0.0150108 -0.0258864 0.00242837 
293 1 58.3121 -1.35743 12.9775 0.0192794 -0.000546519 0.0121175 
372 1 59.6903 -4.87558 21.9667 0.0127924 0.00742217 0.00113626 
299 1 58.8416 -0.904815 14.2218 0.0074418 -0.00119573 0.00179544 
309 1 57.6054 -0.691128 14.9437 0.0172709 0.0182848 0.0111538 
297 1 56.0255 -1.68927 13.5264 -0.00304787 0.00461136 0.0135102 
306 1 56.3714 -0.889978 14.8493 0.0297155 0.00985316 -0.00490547 
321 2 58.2701 -0.398324 15.7433 -0.016606 -0.0560876 0.0976149 
318 2 55.6579 -1.125 15.5345 -0.0208603 -0.0911902 -0.0547994 
396 2 59.4993 -3.84637 23.9473 -0.0415379 -0.0358479 0.09319 
383 1 59.2449 -6.26132 22.1098 0.0100437 -0.00440976 0.0169593 
395 2 59.0309 -6.76924 23.035 0.0412659 0.0529465 -0.068521 
391 2 59.9144 -9.04093 18.9959 0.109748 0.0181613 0.0324791 
370 1 59.7178 -6.75059 19.5587 0.0188737 0.00726013 -0.00341125 
380 1 59.4106 -6.99637 20.9427 0.00877488 -0.00615582 0.00580713 
392 2 59.0684 -8.06208 21.4236 0.0423293 -0.00311332 -0.0468594 
69 2 36.3748 35.1048 -8.2791 -0.00544211 -0.0474061 0.0581928 
61 2 39.8089 29.6653 -10.7275 0.0425775 -0.0146997 -0.00168397 
49 1 39.032 30.1058 -11.3081 0.00788804 0.0364119 -0.0165293 
39 1 37.3314 33.4514 -10.9386 -0.0213367 0.0154147 -0.00293371 
65 2 38.2901 33.1375 -7.53039 0.0157288 0.015098 -0.0613654 
45 1 37.6939 33.8201 -9.49845 -0.0102714 -0.0116654 0.00814261 
62 2 40.1078 31.3546 -8.65743 -0.00146081 0.0725792 -0.0438414 
50 1 39.3563 31.9706 -9.39734 0.0243272 -0.0417559 0.0270019 
43 1 38.9388 31.5324 -10.7845 -0.0165659 -0.0246473 0.0119591 
53 1 38.4101 32.8589 -8.88318 0.0157469 -0.00987468 -0.00702492 
54 1 36.5458 34.6742 -9.1066 8.94336e-06 0.0208362 -0.0321438 
37 1 37.9574 32.2385 -11.4486 -0.0104513 0.0281891 0.00275206 
63 2 38.4842 28.0693 -11.7642 -0.0028673 0.0934971 -0.0539818 
210 2 55.661 19.3605 20.3773 0.0604473 -0.0127517 0.0760547 
277 2 45.4347 23.8141 26.5648 0.0819664 0.0512106 -0.0372033 
267 1 46.0331 23.4431 28.8188 0.00446508 -0.0128118 0.000444785 
266 1 42.5063 23.6022 27.0025 0.0184854 0.00435648 -0.0104124 
259 1 43.6071 23.4771 27.9804 0.0133552 0.0019511 -0.00929974 
265 1 45.0654 23.6298 27.6478 -0.00896528 0.00262353 0.0356818 
279 2 46.8933 23.1169 28.2532 0.0376033 -0.0640698 -0.00624871 
281 2 40.2913 23.8392 27.1599 -0.0381382 -0.0244426 0.0146382 
269 1 41.2799 23.7722 27.5091 -0.00340486 -0.0258294 -0.0177567 
270 1 39.7874 24.1462 29.616 0.00206469 0.0154657 0.0446196 
261 1 41.057 23.7991 28.9492 -0.0135218 0.00280246 0.0174162 
255 1 41.9926 23.584 29.9805 -0.0131212 -0.0177561 -0.0134411 
278 2 42.7627 23.4608 25.8598 0.0250777 -0.0592241 0.0203007 
253 1 43.3312 23.5661 29.4421 0.0115428 0.00658025 -0.0025355 
254 1 44.3498 23.3692 30.587 -0.00599019 0.010494 -0.0255884 
260 1 45.6463 22.8373 30.1623 0.0289601 -0.0343681 -0.0185714 
268 1 46.5766 22.8881 31.2756 -0.0297325 0.00765761 0.0158883 
280 2 47.5739 23.0678 31.0334 0.0179118 -0.0715704 -0.050124 
284 2 45.4237 24.5175 34.679 -0.0656933 -0.000910158 0.036553 