ITEM: TIMESTEP
850000
ITEM: NUMBER OF ATOMS
576
ITEM: BOX BOUNDS pp pp pp
-1.2000000000000000e+01 8.4000000000000000e+01
-1.2000000000000000e+01 3.6000000000000000e+01
-1.2000000000000000e+01 3.6000000000000000e+01
ITEM: ATOMS id type x y z vx vy vz 
248 2 -7.5451 2.09575 -8.79212 0.0120904 -0.0268235 -0.0493849 
176 2 -8.2488 2.01784 -8.92276 0.0287075 -0.0560271 0.037749 
87 1 -9.26175 -1.18901 2.26464 -0.0271317 -0.0130137 -0.00560976 
100 2 -11.2657 -0.36043 2.92677 0.0360777 -0.0643549 -0.0495003 
80 1 -10.8164 -1.02407 2.09521 0.018474 -0.00193599 -0.0485916 
99 2 -7.43934 -2.43809 1.66458 -0.0358843 0.113347 0.0357566 
85 1 -8.17423 -1.887 2.30884 -0.00149243 -0.00159706 0.0153141 
462 2 -5.26691 7.2904 2.56734 0.0235922 -0.11741 -0.0590644 
450 1 -4.89006 8.18843 2.94343 -0.0158491 -0.00459999 -0.00882467 
465 2 -5.21088 11.4797 3.73164 0.0371964 0.0287209 -0.0666548 
468 2 -3.51095 7.78882 4.259 0.0192873 0.0645082 0.00282492 
443 1 -4.66562 10.2574 3.6434 0.00179487 -0.00861473 0.0140273 
454 1 -3.87352 9.7286 4.80514 -0.000701786 0.00561355 0.0157051 
453 1 -5.37257 9.42066 3.16745 -0.00606312 0.00465249 -0.0330048 
456 1 -3.23244 8.58029 4.86658 0.0380424 -0.0108466 -0.0195097 
440 1 -2.55223 10.9801 9.92043 0.010248 -0.0183226 -0.0215522 
451 1 -1.26466 8.76217 9.97688 0.0320925 -0.0128299 0.00614334 
463 2 -0.674776 7.86174 10.3699 -0.101033 0.0327591 -0.0540081 
434 1 -2.63121 10.8037 8.51117 -0.00116196 0.019098 -0.00891881 
455 1 -1.95629 7.12457 6.61836 0.0175745 -0.000265648 0.0184302 
467 2 -2.07191 6.00907 6.02005 6.3269e-05 -0.0413699 0.0504418 
444 1 -2.58498 8.22964 6.04297 -0.00424019 0.0106957 -0.0107155 
452 1 -1.1807 7.34461 7.87936 -0.0146003 0.0226745 0.049884 
438 1 -2.78708 9.38165 6.6759 -0.0349566 0.000885331 -0.0212102 
437 1 -3.35523 10.3584 5.97495 0.00139444 -0.004948 -0.00795393 
442 1 -1.68069 8.51064 8.56278 0.0193551 0.0201056 -0.0144566 
436 1 -1.98486 9.67801 7.77969 0.0235696 0.00648055 0.00347533 
448 1 -2.21162 9.5857 10.7606 0.0266094 0.00016427 0.0174325 
105 2 -4.047 -2.04472 10.3036 0.103577 0.041304 -0.0314131 
435 1 -3.64057 11.7471 6.33897 0.0128734 -0.0118565 -0.0020994 
460 2 -3.04685 9.53856 11.3664 -0.0274981 -0.0311531 -0.0246116 
466 2 -3.8545 -1.61381 9.48443 -0.0390069 0.0143784 -0.0435083 
123 1 8.99131 -3.01509 24.4295 0.00592023 -0.00127303 0.0002524 
139 2 7.30697 -6.17593 25.7504 -0.0832056 -0.0225613 -0.0092246 
314 2 -0.412582 -0.66688 25.9601 -0.0014733 0.0171384 0.105391 
142 2 5.22215 -1.88867 18.2186 0.042759 -0.0257359 -0.0141813 
141 2 7.52295 -4.52444 17.0205 -0.113946 0.023235 0.0694918 
127 1 5.87735 -5.36525 24.8037 -0.0181757 0.00763825 -0.00786392 
134 2 10.347 -0.135813 21.0372 -0.00886185 0.0363546 0.109725 
394 2 -10.9446 8.59863 16.826 0.115835 0.122739 5.99722e-06 
140 2 3.35869 -6.45493 23.522 0.09131 -0.0183815 0.0546376 
143 2 2.50179 -4.83587 21.7352 -0.0638276 0.0668482 0.0575618 
131 1 3.58897 -4.70867 21.7795 -0.0271325 0.00493159 0.0193641 
128 1 4.14026 -5.74348 22.7813 0.0224439 0.0106447 -0.000588097 
130 1 4.84521 -2.91145 18.4683 -0.00362999 -0.00791294 0.00632035 
132 1 3.98151 -3.64022 19.3513 -0.00420908 -0.00210917 -0.0231465 
118 1 5.29863 -5.16172 23.3991 -0.00406349 -0.00602807 0.00314926 
120 1 4.28552 -4.3256 20.6565 -0.00825586 0.0142323 0.0115016 
126 1 8.6754 -3.08718 18.1722 -0.00267013 0.0080155 0.0112724 
109 1 7.96763 -3.00444 21.9625 -0.00151564 0.000172464 -0.003385 
113 1 6.63528 -3.92642 20.123 -0.0225545 -0.0179772 -0.0352758 
114 1 5.61902 -4.44699 21.0484 -0.00555547 -0.03154 -0.0130938 
110 1 7.03551 -3.43294 23.0042 0.0253506 0.0119834 -0.013252 
112 1 5.81117 -4.1989 22.5333 -0.0185387 0.00222265 -0.0338448 
119 1 6.16205 -3.66589 18.5173 -0.0251967 -0.0200725 0.0135574 
111 1 7.76526 -3.41153 20.6817 -0.0106673 0.00627886 0.0106857 
115 1 9.25534 -2.0569 22.1403 0.0166559 0.00121501 -0.00827938 
129 1 7.48311 -3.83756 17.8497 -0.0264764 0.00223059 -0.00197792 
117 1 8.82399 -2.6321 19.5355 -0.0310109 0.00513514 0.0155503 
138 2 9.73608 -3.13904 17.7566 -0.0347099 0.0709853 -0.018298 
125 1 10.1239 -2.15749 19.9898 -0.0244105 -0.0190222 -0.00412913 
122 1 10.1486 -1.26939 21.2433 -0.0200457 -0.00154467 0.0222242 
137 2 11.0554 -1.894 19.47 0.0473344 9.46662e-05 -0.0256298 
277 2 -4.86288 -11.4287 21.4648 0.0392646 -0.0324515 -0.101676 
121 1 9.16328 -1.85469 23.5202 -0.0122068 0.0319375 -0.00520845 
116 1 7.62821 -3.93768 24.2473 0.0101641 0.0097423 -0.0180058 
124 1 7.14661 -5.27067 25.0975 -0.00146776 0.00836124 -0.0134138 
144 2 -11.5758 8.03537 16.1792 -0.035639 -0.0164148 -0.0124537 
496 2 5.72505 -6.57892 25.3017 -0.114628 -0.00710755 0.0232381 
64 2 -2.59647 25.8672 -8.74883 -0.0970057 0.00866021 0.048015 
464 2 -1.97763 25.9359 -9.09444 0.0479791 -0.0964379 0.00310402 
561 1 10.0337 31.9563 -9.28893 0.0272218 -0.00801853 0.0339058 
570 2 9.29076 30.7674 -7.21346 -0.037339 -0.0268024 -0.0181488 
558 1 10.0531 30.9337 -8.08894 0.00480967 -0.0012282 -0.0115179 
549 1 11.1481 30.6311 -7.28015 0.0410761 -0.025138 -0.00160541 
98 2 -8.87666 32.8035 6.86909 -0.026984 0.0211027 -0.0476754 
551 1 11.3178 31.8665 -9.97689 -0.014347 0.00833949 0.00837469 
574 2 -3.88484 24.8639 -2.6904 -0.132684 -0.0375768 -0.00796688 
352 2 -4.16138 25.6269 -3.24779 0.00809665 0.0326425 -0.0226959 
71 2 2.33275 28.7043 -2.70877 0.0399268 -0.019862 -0.073254 
504 2 2.77196 27.9184 -2.80512 -0.0168847 -0.0925917 0.0481051 
566 2 10.1911 30.4709 -5.17753 -0.0605161 -0.0285828 -0.106447 
554 1 11.1331 30.7344 -5.74833 0.0035873 -0.0129073 0.0288339 
461 2 -4.53941 12.7152 4.45551 -0.0902635 0.0226418 -0.052332 
33 2 -0.203192 12.8642 1.7585 0.0039384 -0.0987438 -0.0761723 
287 2 -0.113576 12.4848 1.44261 -0.0194197 0.0198962 0.0610314 
457 2 -3.14675 14.0964 10.8605 -0.00734081 -0.0387859 0.0665653 
458 2 -4.71354 15.0117 6.18372 -0.0490673 0.0425636 -0.0139977 
449 1 -4.63717 13.9938 6.48539 -0.00546851 0.0114273 -0.01376 
445 1 -2.73837 13.5627 9.86335 -0.0107907 -0.0228748 0.00565328 
446 1 -4.67802 13.6098 7.97667 0.0135634 -0.0512693 -0.00848628 
447 1 -2.97018 12.1869 10.5797 -0.00194541 0.00131613 -0.00888976 
439 1 -3.33867 13.084 8.56336 0.0127134 0.00609902 0.00290462 
459 2 -1.62919 13.5485 9.70744 -0.00299985 0.0262413 -0.000518677 
441 1 -4.45393 12.7768 5.65295 0.00134261 -0.0082145 -0.01355 
573 2 11.3575 32.6872 -10.7959 -0.0728495 -0.0756653 -0.00519017 
433 1 -2.96943 12.0923 7.62335 0.0057611 -0.00443398 0.0027653 
218 1 4.06148 15.7806 17.6913 -0.0114286 0.00123686 0.0112047 
231 1 2.67323 16.8266 16.4092 -0.0263548 0.0135882 -0.00594881 
224 1 2.70464 16.3702 17.7126 0.000584905 0.0158191 0.00676275 
243 2 1.56262 17.0031 16.2254 0.0402451 0.0721343 -0.0246604 
232 1 1.52488 16.2582 18.6769 -0.00628671 0.0382272 0.0194746 
244 2 0.615005 16.8218 18.5288 -0.0663945 0.110103 0.0718463 
241 2 3.3587 17.761 14.2809 0.0155868 -0.0402111 0.0837247 
229 1 3.34474 17.3063 15.3404 0.000715163 -0.00626038 0.0100456 
223 1 4.64453 17.3119 15.9241 -0.0244828 0.0166755 -0.00620935 
217 1 5.02767 16.5715 17.1434 0.00146796 -0.00553263 0.0105209 
219 1 6.4504 16.001 17.151 -0.0165923 0.00271588 -0.021071 
242 2 5.70026 19.0653 15.4596 -0.0235717 -0.0227865 0.0119487 
230 1 5.7826 18.1313 15.4449 0.0021253 0.0016877 0.0109573 
233 1 7.12087 17.7029 15.5452 0.0251319 -0.0165776 -0.0120357 
225 1 7.37586 16.4289 16.3187 -0.0252119 0.0130733 0.0105567 
245 2 7.899 18.2818 14.9052 0.0149826 -0.0349597 -0.0198755 
188 1 11.5363 25.3352 18.066 -0.00438908 -0.0144975 0.00965411 
205 2 10.5878 24.3998 14.8579 0.0734043 0.0273534 0.0258525 
195 1 10.3407 25.1684 17.148 0.00124204 0.0251747 0.00127645 
193 1 11.0917 24.996 15.7012 -0.0190396 -0.0207704 -0.0057879 
206 2 11.2045 22.9436 14.7405 -0.0166782 -0.060676 -0.0331244 
235 1 1.90645 15.2998 19.6421 0.0193785 -0.00522632 0.00858296 
251 2 3.33086 13.7331 21.9651 0.0461063 -0.0607454 -0.0389632 
220 1 4.35486 15.1885 19.0836 0.00729341 -0.0265641 -0.0113693 
226 1 3.28027 14.8765 20.0029 -0.00763901 -0.0105433 0.035497 
222 1 5.76345 14.9284 19.1604 -0.00161004 0.0175281 0.0014784 
228 1 6.11749 14.2139 20.3811 0.0259946 0.0256432 0.0048062 
247 2 0.788975 14.8335 19.8011 -0.105785 0.00479857 -0.057936 
239 1 3.79113 13.8832 21.1064 0.0152511 -0.0118885 0.000490165 
236 1 5.13985 13.7454 21.1424 0.00210198 0.0183038 -0.00384381 
252 2 7.73894 12.8049 21.3965 -0.042787 -0.0244162 -0.0123134 
240 1 7.60841 13.8039 20.5891 -0.0106803 0.0478111 -0.00124237 
357 2 9.63184 14.3985 20.4846 0.0747858 -0.0630298 -0.04625 
238 1 8.70363 14.3637 19.8427 0.00468873 -0.000447604 -0.00765293 
227 1 8.24112 15.4957 18.831 0.00668238 -0.019167 -0.00571806 
221 1 6.85412 15.6339 18.5495 0.00355316 0.0131357 -0.000171839 
249 2 9.68675 17.3384 18.4287 0.0800338 -0.087894 -0.0356683 
237 1 9.07482 16.4518 18.0115 -0.00147755 0.0292153 -0.023466 
234 1 8.77068 16.2131 16.5988 0.00103243 -0.0057144 0.0179998 
246 2 9.55431 16.6428 15.8164 0.0151489 -0.084107 0.0256442 
271 1 -3.01051 34.423 26.7061 0.0109424 -0.0239815 -0.0210792 
272 1 -4.3578 33.7328 28.7683 0.00394844 0.00213902 -0.00286497 
268 1 -2.78335 35.5337 25.444 0.00258855 -0.00745017 -0.00289377 
196 1 10.9811 25.9237 19.328 -0.042268 -0.00748454 0.00633261 
256 1 -5.55529 34.8465 26.6398 -0.00153737 -0.0157075 -0.0117917 
261 1 -8.59705 34.195 23.9536 -0.0262323 0.018092 0.0034342 
285 2 -10.4338 33.7418 23.8721 0.0286062 -0.0159586 -0.0203508 
270 1 -9.64917 33.1282 24.3669 -0.00967217 0.00458758 0.00546158 
281 2 -6.98978 35.162 21.1746 0.0860047 0.029447 -0.0427418 
266 1 -7.05175 34.9026 22.0748 -0.0227408 -0.00152368 -0.00591229 
269 1 -8.4464 34.6152 22.4741 -0.0132866 -0.020105 -0.00368264 
265 1 -5.05833 35.9831 22.4249 -0.00663015 0.0301689 -0.00602488 
259 1 -6.0034 35.1518 23.1351 -0.00399378 0.00675133 0.00245848 
575 2 -9.97774 31.2321 25.6212 -0.00478867 0.000650175 0.0237068 
286 2 -9.23988 31.0534 27.4158 0.0160993 0.0383567 0.0445424 
263 1 -8.32546 32.4541 26.4135 -0.00565153 0.0401554 -0.00804456 
288 2 -7.78028 32.0256 29.5039 0.0174925 -0.0647846 0.0452791 
275 1 -5.62818 34.1799 28.8042 0.00916064 0.00606224 -0.0185047 
276 1 -7.5791 32.6532 28.5412 0.0125516 -0.0168079 -0.0169536 
258 1 -6.65853 33.9964 27.0349 -0.0116025 -0.00636133 -0.0106878 
274 1 -8.35464 32.153 27.7523 0.00474002 0.00487793 0.0149605 
264 1 -6.8797 33.7585 28.3746 0.00986897 -0.0283367 0.0104777 
257 1 -7.4466 33.5295 26.0533 0.00853962 0.0248281 0.00445 
273 1 -9.49211 32.2336 25.4677 0.00701704 0.00394367 -0.0023767 
255 1 -7.20166 34.2688 24.8038 -0.00796417 0.00230568 0.00633715 
253 1 -6.00591 34.7063 24.584 0.00202596 0.00684155 0.00509897 
260 1 -4.02938 35.5546 24.6145 -0.000368747 -0.0140245 0.00338117 
262 1 -4.2988 34.3677 27.1784 0.00487572 0.0320863 -0.00548987 
254 1 -5.17739 35.3892 25.5044 0.0129508 -0.018308 0.0271955 
211 2 11.1611 25.4715 21.3487 -0.00416697 -0.0250984 -0.000182755 
267 1 -3.75223 35.6072 23.3035 -0.0193108 -0.0103957 -0.00542754 
207 2 11.2577 25.9667 15.0898 -0.056993 0.0226276 0.0804911 
199 1 11.8131 25.4699 20.42 0.0100111 -0.00792166 -0.00630464 
208 2 10.2977 26.6162 19.4701 -0.0689605 -0.166284 -0.0561438 
280 2 -1.8726 35.1481 25.508 0.075214 -0.040236 0.0142279 
279 2 -2.67292 35.4407 22.9384 0.074841 -0.0466604 -0.0642174 
572 2 11.896 35.0757 34.727 0.0276489 0.0571582 0.0111923 
104 2 16.3497 5.46965 -8.24664 0.0507837 -0.0164435 0.0429506 
92 1 17.2315 5.3223 -8.86928 -0.00285292 -0.0129682 -0.0310073 
88 1 14.7537 4.48351 -11.3037 0.0110542 0.0101574 -0.00348181 
91 1 15.6541 4.67851 -10.8581 0.0235525 -0.0117374 -0.00461106 
82 1 16.6906 5.56941 -10.1927 0.0139703 0.0178095 0.0166984 
84 1 19.2741 4.58598 -10.1784 -0.030316 -0.00401124 -0.0213781 
95 1 18.2728 4.27473 -9.115 -0.0136297 -0.022148 0.0228722 
107 2 18.6696 3.53475 -8.33173 -0.0602611 0.0156804 0.0319879 
96 1 20.8051 4.20682 -10.2415 0.0118167 -0.0142261 -0.0102 
106 2 21.1253 3.5431 -9.50427 -0.0203258 -0.000710056 0.0615405 
94 1 21.6493 4.96466 -11.0957 0.0246042 -0.00409465 -0.0117409 
78 1 18.7684 5.51862 -11.2281 -0.0137714 -0.0253197 0.0192605 
427 2 30.4448 -3.70853 5.81965 -0.0672414 -0.000512149 -0.014392 
74 1 17.0339 7.45691 -11.9258 -0.0197806 -0.00175086 0.00261313 
76 1 17.5569 6.3845 -11.1177 -0.00825514 0.0134084 -0.0159715 
423 2 32.0601 -4.44214 7.21991 0.0123241 -0.010038 -0.0247967 
411 1 31.3646 -3.01086 5.97296 -0.00427376 0.00334288 -0.00805512 
397 1 33.1432 -2.34029 7.55418 0.0204227 0.0144453 0.00619787 
136 2 30.6382 7.45277 -2.19549 -0.0738885 0.0459903 -0.0135433 
430 2 28.8838 7.67087 -1.75887 0.0508388 -0.0633829 -0.00319599 
420 1 29.7685 7.02341 -1.79283 -0.0198241 0.0232602 0.00964568 
408 1 29.9999 6.13213 -0.730473 -0.0306693 0.00839731 0.0130654 
410 1 34.0999 -3.37227 10.2411 0.00354316 0.0043145 0.00132571 
14 1 34.7212 -4.25079 11.1222 0.000607936 -0.00872874 0.000794604 
355 2 15.9903 8.06054 -11.6597 -0.102554 0.00244129 -0.0231895 
356 2 14.085 -11.8055 2.6145 -0.0271831 0.0153167 0.0389675 
424 2 30.8714 -1.79092 3.4383 0.0135836 0.100041 -0.0207671 
412 1 31.5942 -1.04326 3.82461 -0.000893607 -0.00836021 -0.0303765 
406 1 32.6487 -0.181019 3.20812 0.00557282 -0.00736044 -0.0260137 
415 1 33.5855 0.0756601 4.53835 0.0246881 0.00113518 0.00283804 
404 1 31.7735 -1.71102 5.30318 0.00875685 -0.023925 0.00554758 
428 2 30.455 0.578553 0.765964 0.0105802 0.0404097 -0.045224 
398 1 32.6848 -0.579954 5.66393 0.0106129 0.0148222 0.0039516 
416 1 32.2744 0.0547705 1.68308 0.0347351 -0.00484294 -0.0157779 
431 2 32.0124 0.412463 -0.357529 0.102461 -0.10527 0.141588 
419 1 31.5543 0.570553 0.62774 -0.00392098 0.0171772 0.0123386 
400 1 34.5213 1.1353 4.74987 -0.00634603 0.00348314 0.0109115 
402 1 34.6873 1.89254 5.92946 0.0122432 -0.00748109 0.0055418 
401 1 33.9512 2.95451 6.08055 0.000740286 0.0435753 0.00327845 
250 2 32.6203 4.60174 6.46316 -0.0298256 -0.0297618 0.00290048 
418 1 30.867 5.56273 0.102804 0.0151711 -0.0162022 -0.00325782 
429 2 31.9654 3.1585 4.73524 -0.0863313 0.0403495 -0.0420166 
407 1 32.8307 3.67557 4.45324 -0.00236967 0.00679692 -0.00423108 
399 1 33.184 4.10599 5.83545 -0.00460622 -0.0290259 0.0266995 
417 1 32.5706 4.25424 3.25201 -0.026775 0.000155047 -0.0403492 
405 1 31.4269 5.1098 1.15756 0.0342628 0.00984451 -0.00848476 
414 1 31.9598 4.69966 2.24985 0.0279052 0.00244 -0.023154 
426 2 35.3468 1.489 4.09626 0.113879 0.0395447 0.0522581 
409 1 32.2798 -3.44493 7.01062 -0.00222782 0.0122949 -0.0227635 
17 1 33.1351 -1.03096 6.93472 0.0148591 -0.00209075 -0.00275955 
413 1 35.1665 -3.47833 9.0037 0.000234206 -0.00663919 -0.0205985 
571 2 14.2538 -11.8902 -8.69354 0.0412324 -0.0217604 -0.0067525 
425 2 34.4099 -0.766226 6.93553 -0.0630322 -0.0799216 -0.0519062 
403 1 34.4497 -2.78689 8.07385 0.0166095 -0.0138009 0.00387479 
103 2 13.7431 4.04982 -11.6227 -0.0365553 -0.0767401 0.01434 
507 1 29.0704 -6.08935 16.6767 -0.00768999 -0.0198463 -0.0163287 
522 1 29.5138 -5.27667 15.5517 -0.00383091 -0.0026815 -0.0021383 
509 1 30.0598 -6.9169 17.2573 0.0204334 0.00297351 0.00137792 
525 1 30.9728 -5.74752 15.4281 0.0293055 -0.000580741 -0.0121053 
515 1 31.3124 -6.70094 16.4203 0.00111225 -0.00287492 0.0190288 
526 1 32.2821 -7.82674 16.6515 0.0225679 -0.0036802 -0.0341594 
528 1 31.8762 -8.12069 17.9438 0.0167086 0.0106801 -0.0146865 
534 2 31.7986 -5.41309 14.6231 0.0233883 -0.0240325 -0.00783295 
538 2 32.752 -8.20279 15.8838 0.110781 0.027664 -0.0494295 
505 1 27.8919 -5.94555 17.4127 -0.0116756 -0.00752376 0.026252 
513 1 28.8357 -5.95631 14.3708 -0.0192495 -0.00231263 0.0197118 
511 1 26.6385 -5.58155 16.6484 -0.0139247 -0.0026082 -0.00471325 
521 1 27.5379 -6.04277 14.8072 -0.00468856 0.0241965 -0.0119901 
533 2 28.8275 -6.12194 13.2321 0.0595752 0.0380594 0.0717389 
518 1 26.2792 -6.05281 15.46 0.00314433 -0.000875963 0.0198495 
530 2 25.2622 -5.59321 15.2937 0.0223072 -0.070861 0.0489796 
517 1 25.8302 -4.7278 17.6511 0.00226855 0.0243333 -0.0212791 
529 2 25.274 -4.41474 16.7225 0.0199985 -0.00715663 0.0082449 
177 2 12.7186 -11.1507 35.4151 0.0907643 -0.0446409 0.19159 
83 1 21.12 5.8632 35.8106 -0.0197597 0.00192834 -0.00736623 
510 1 30.2282 -6.88812 18.7665 -0.00633022 0.00950451 0.0196731 
536 2 30.149 -8.46073 22.4332 0.0428581 0.0524972 0.00883575 
524 1 30.2039 -7.84853 21.5709 -0.00741969 0.00525913 0.00932452 
508 1 29.0814 -6.97764 19.6819 0.00514515 -0.00788707 0.0290711 
523 1 28.2854 -5.95363 21.8117 -0.0283223 0.0225895 -0.00935283 
514 1 29.1274 -6.99193 21.0832 0.0128774 0.0167977 0.00664766 
527 1 30.8504 -8.27091 20.4646 0.0166243 -0.00721738 0.0194798 
516 1 31.1024 -8.04638 19.3341 0.0159861 0.0306838 -0.00667462 
86 1 19.4227 9.88615 34.5956 0.021305 -0.0118666 0.0057406 
506 1 27.9008 -6.16051 18.9559 0.0139454 -0.00962384 0.0176052 
535 2 26.5795 -4.49498 21.4894 0.0167563 0.0559782 0.0489372 
512 1 26.8535 -5.45605 19.5035 0.015804 -0.0131531 -0.0028575 
520 1 27.2281 -5.29446 21.0184 0.0116854 -0.0256172 -0.0236587 
531 2 24.7138 -4.67875 19.4915 -0.000505414 0.029315 -0.0175574 
519 1 25.5456 -4.88494 18.9507 -0.00366242 0.0103099 -0.000575055 
135 2 30.0028 3.66139 33.7077 -0.00194965 0.134374 -0.00781864 
282 2 29.587 4.44536 33.7272 -0.0236426 -0.0210099 0.0771133 
97 2 17.223 9.93273 35.2083 -0.0426034 0.0129986 -0.0739947 
81 1 20.5508 8.07021 34.5136 0.018055 0.000254522 -0.027996 
93 1 21.8816 6.21295 34.5374 -0.0314913 0.0265339 0.00767376 
79 1 18.1845 9.44915 34.761 0.0138124 0.00769353 -0.00128232 
73 1 18.0728 7.9684 35.2507 -0.00358768 0.0274501 -0.00896192 
90 1 21.9973 7.65536 34.2371 -0.0122087 -0.00851259 0.0729058 
75 1 19.4401 7.40798 35.2387 -0.000202407 0.0115504 0.00536995 
102 2 22.7003 8.03481 33.5361 -0.0222579 0.0320947 0.0814126 
101 2 21.2708 9.67474 33.0267 0.00897662 0.0218598 -0.0275119 
89 1 20.4767 9.22249 33.7669 -0.0126969 -0.0102983 -0.0227564 
432 2 15.8947 10.3 20.299 0.104389 0.0120384 0.0213101 
422 2 34.3718 -4.25313 12.2259 0.134593 0.0097144 0.0419798 
77 1 19.6879 6.09469 35.7892 -0.00441265 -0.0170379 -0.0284214 
576 2 14.7602 30.05 -11.6723 -0.0987719 -0.044723 0.00782142 
562 1 15.957 30.2582 -9.72155 -0.0120908 0.00759058 0.00137857 
564 1 14.9177 30.5569 -10.6208 -0.00844828 0.0184379 0.0170098 
421 2 16.3153 30.2416 -8.74962 -0.0158001 -0.0350332 -0.108079 
545 1 12.4716 31.1231 -9.47927 0.0229758 -0.0153932 -0.0419133 
542 1 15.5213 32.4995 -8.6609 0.00154593 0.0152178 0.0113007 
560 1 13.4799 34.6613 -10.3224 -0.0173531 0.024272 0.015279 
544 1 14.2459 32.5283 -9.31641 -0.00558328 -0.00666271 0.000403889 
546 1 13.8245 31.3442 -10.041 -0.00556189 0.0229159 -0.0254408 
559 1 14.4134 35.0781 -8.40043 0.00676326 -0.0012402 -0.0109283 
556 1 14.7086 34.3303 -7.21343 0.00471504 0.00198803 0.00194988 
550 1 14.1709 34.0276 -9.43724 0.0136334 -0.00596082 0.0102613 
568 2 14.2176 34.8362 -6.41239 -0.00131544 -0.0252777 -0.0590608 
552 1 13.0656 35.0287 -11.4563 -0.0178156 -0.0100533 -0.0150583 
359 2 12.7838 35.263 4.02787 -0.0375003 0.022647 -0.0468492 
541 1 13.6359 30.4576 -7.47921 -0.0231775 0.00511045 -0.0165572 
555 1 15.5047 33.073 -7.19998 0.00562606 -0.00103445 0.00548724 
569 2 14.7121 30.6606 -7.74139 -0.114846 -0.144892 -0.00661551 
543 1 12.4271 30.6041 -8.04824 -0.00318286 0.00506711 -0.0152155 
567 2 15.613 32.8392 -4.88757 -0.0246411 -0.0407475 -0.0442461 
565 2 15.0305 30.9058 -4.81499 0.0349362 0.0740684 -0.00745332 
548 1 15.51 32.3845 -5.88426 -0.0311222 -0.0216417 -0.0180949 
553 1 14.4157 31.3999 -5.61246 0.00114338 -0.00626217 0.00966974 
547 1 13.5963 30.2587 -6.06845 -0.00353327 0.0247825 -0.0218766 
341 1 19.3237 31.7253 7.13502 -0.00513812 0.00327184 -0.00894044 
328 1 16.3382 34.3282 4.16885 -0.0031305 0.00789955 -0.00471009 
343 1 16.5027 34.7005 1.78304 0.00156447 0.0330234 -0.00207998 
325 1 18.231 33.3209 5.17193 -0.00913527 0.00019513 0.00165734 
332 1 18.3863 33.8338 2.86766 0.0248251 0.0113198 -0.0124686 
326 1 17.5261 33.8459 4.01779 0.003743 -0.00293179 0.0259898 
340 1 17.7986 34.1212 1.43728 -0.000111848 0.0142423 0.0107576 
334 1 15.5615 34.6274 2.92429 0.0220131 -0.0211128 -0.0128184 
330 1 15.6342 34.1964 5.43496 0.00647294 -0.0432278 0.0209429 
336 1 14.4034 34.8998 5.67561 0.0136743 0.00185362 0.0101207 
351 2 20.4404 34.4001 2.23621 0.0596803 -0.0421742 0.0223265 
339 1 19.7551 34.0908 2.98783 0.0166942 0.0189077 -0.00457938 
337 1 20.3629 34.142 4.2073 0.0162604 -0.00219041 0.0107648 
331 1 19.6258 33.4152 5.24902 -0.000866373 0.0168472 0.027054 
349 2 21.5293 34.347 4.12598 -0.0720946 0.0555508 -0.0347162 
350 2 21.1627 32.217 6.12979 0.0358735 -0.0234265 -0.0608034 
338 1 20.1704 32.388 6.05589 -0.00973963 -0.00841952 0.0108257 
358 2 13.4741 32.5839 8.17302 0.0295498 -0.0255123 -0.00565483 
216 2 14.9683 31.257 9.21144 -0.0378907 -0.0245705 -0.0150256 
329 1 16.0592 33.0001 6.39303 0.00156914 -0.0159367 0.0115199 
327 1 17.3246 32.6275 6.10743 -0.00016104 -0.0278091 -0.0256785 
345 1 15.7878 31.619 8.46606 0.0138016 -0.013299 0.00890673 
342 1 17.0727 31.265 8.24237 -0.0171156 -0.000557637 -0.0338009 
354 2 17.6561 30.7266 8.99211 0.0467027 -0.0326524 -0.055813 
335 1 15.5036 32.8982 7.60164 0.0021687 -0.00603681 -0.0081212 
346 1 13.9918 33.4649 7.59109 -0.00359252 -0.00343316 0.00182221 
348 1 13.3444 34.4541 6.71027 -0.00407979 -0.0287556 -0.020502 
353 2 19.4099 31.0405 7.89857 -0.100907 -0.0502439 0.00804848 
333 1 17.9043 31.726 6.9469 0.00996409 -0.0117998 0.0229478 
557 1 12.3836 30.1261 -5.18758 0.00851695 0.0206036 0.00804219 
344 1 14.3292 35.3405 3.00441 -0.0185125 -0.0146267 0.0031101 
360 2 12.2726 34.9637 6.95734 -0.0716251 -0.0202612 -0.0548245 
347 1 13.846 35.189 4.37275 -0.0201861 -0.0265955 -0.00129513 
183 1 14.0791 22.6301 16.766 0.0192782 -0.0222092 0.0119502 
209 2 13.8926 21.0695 14.1629 0.0789116 0.0887909 0.0479658 
197 1 13.4463 21.8542 14.8773 -0.00514328 -0.0247076 -0.000370563 
189 1 14.5001 21.853 15.6628 0.00939129 0.0218654 0.0167408 
133 2 15.9351 20.1651 14.9288 0.0549769 0.0549617 0.0084078 
198 1 15.7838 20.9805 15.6121 -0.0165062 -0.00595842 -0.00539028 
201 1 16.5713 21.1622 17.0263 -0.00474622 -0.0187771 -0.0142328 
191 1 16.0082 22.0611 17.9897 0.00777778 -0.0121028 0.00911951 
214 2 17.6393 20.8509 17.2115 0.00681954 -0.0463702 -0.0721123 
185 1 14.6791 22.5599 17.9523 0.00334913 -0.00947544 -0.00256893 
181 1 13.3407 23.758 16.7445 0.0171433 0.0102659 0.00503096 
213 2 16.4685 22.0979 18.9513 0.0323377 -0.0506759 0.041629 
187 1 12.4088 24.025 15.6906 -0.00162553 -0.0115621 0.0282675 
215 2 12.7909 23.0339 21.7973 0.0681081 0.0568254 0.0823041 
563 1 12.5347 35.6556 35.4206 -0.00649523 -0.012223 0.0092103 
182 1 12.6762 24.4182 18.0209 -0.0328816 0.0226086 0.0202676 
192 1 15.4973 21.7265 20.6125 0.00312759 0.00267013 0.0166358 
212 2 15.6171 20.9591 19.8062 0.0174685 0.00425671 -0.06431 
186 1 14.3723 23.4247 18.961 -0.00632957 -0.0036272 -0.0268441 
202 1 17.9931 22.2642 20.4838 0.00413913 0.00918663 0.00424483 
204 1 16.8192 22.0631 20.6931 0.0370195 0.0116816 -0.01338 
203 1 14.5872 22.8357 20.2323 0.0105054 0.00400892 0.00843689 
200 1 13.5459 23.4415 21.1769 6.63233e-05 0.0317907 -0.0267474 
184 1 13.5093 24.2783 19.0111 0.0309547 0.0156496 0.0333362 
190 1 13.0251 24.5847 20.3907 0.0228927 -0.00602712 0.0110432 
540 2 28.4946 13.8063 33.9772 0.0509331 0.0458211 0.00906743 
537 2 27.867 14.2995 33.9418 0.0650585 -0.0300233 0.0568803 
194 1 12.2111 22.7921 14.9899 0.0141676 -0.000560613 -0.0235731 
29 2 36.1325 -3.99735 9.19747 -0.011605 0.106891 0.0384076 
284 2 40.0965 13.9831 4.30804 -0.191984 -0.0117156 0.0203357 
210 2 40.5393 14.3886 3.73397 -0.100809 -0.00938102 0.0584479 
66 2 47.4197 23.3913 4.3102 -0.0995178 -0.114862 0.0538845 
57 1 48.7196 23.4897 5.90264 0.00161405 -0.011449 -0.0146004 
50 1 45.986 26.0978 6.94965 -0.00688364 -0.000903218 -0.00996355 
65 2 45.3118 26.162 7.85963 0.0152485 -0.0767948 0.0255696 
53 1 46.4501 24.8378 6.32188 -0.00981701 0.000772725 -0.010089 
47 1 47.9579 24.0064 4.94459 0.00477837 -0.0321526 -0.0241296 
45 1 47.2925 25.4796 5.11966 0.017396 -0.0238452 0.0117642 
43 1 46.6483 27.2914 6.55793 0.0169377 0.00603019 0.0185607 
49 1 46.6269 28.7244 6.86011 -0.0155832 0.0215164 0.0200942 
62 2 46.9512 26.2335 4.84206 0.0910049 -0.0471937 0.0480459 
61 2 45.5487 29.0703 6.84461 0.0358036 0.0451352 0.00075491 
37 1 48.0219 27.3358 6.15173 -0.0192649 0.0160294 -0.00509227 
44 1 47.7519 29.5256 6.65346 0.0151101 0.00730398 -0.00633847 
69 2 50.228 22.7926 7.91591 -0.0371411 8.43716e-05 -0.0485634 
54 1 50.4959 23.7563 7.78054 -0.0267523 -0.00453787 -0.0070552 
39 1 48.2334 25.8903 6.20437 0.00865226 -0.00127799 -0.014552 
38 1 48.733 28.4518 6.62682 -0.0103244 0.00118076 -0.0127324 
72 2 50.853 26.526 11.1977 0.121191 0.0549267 0.0733763 
58 1 49.3192 24.2741 6.89447 -0.0194819 0.017635 0.0451171 
41 1 49.3634 25.7122 6.76804 0.0257531 -0.0192743 -0.000865193 
70 2 50.8806 23.6763 9.85637 0.0413026 0.0432143 0.0803077 
42 1 49.7972 26.6898 7.88786 -1.76856e-05 -0.00585817 -0.00539166 
60 1 51.0225 24.3609 8.94847 0.00977644 -0.0186833 0.0138032 
68 2 49.9568 28.5157 11.3252 0.0371758 -0.0239866 0.0287638 
48 1 50.5789 25.9128 8.87029 -0.0169111 -0.00607887 0.0104807 
40 1 49.6116 28.0272 7.77846 -0.000514835 -0.00838098 -0.0353122 
56 1 50.8177 26.7744 10.0175 0.020349 0.0191579 0.010338 
46 1 49.3021 28.7232 9.15347 -0.00390421 0.0283975 -0.00895895 
59 1 49.9908 27.9161 10.3366 0.0252158 -0.00998088 -0.0179236 
55 1 49.2158 30.0641 9.61872 -0.0226126 0.000860946 0.0374319 
63 2 47.3354 31.7765 6.77614 0.0682746 -0.032029 0.0261756 
51 1 47.9491 30.9851 7.20329 -0.00929471 6.84151e-05 0.00796895 
52 1 48.6167 30.8367 8.46073 -0.0137406 0.0198205 0.0209039 
67 2 49.8987 30.6572 10.1994 -0.0356881 -0.0232073 0.025217 
278 2 54.031 14.0139 -4.15543 0.0403311 0.0297948 0.0178662 
283 2 54.6568 14.1993 -3.6073 0.0199307 0.094667 -0.0401082 
30 2 58.9316 25.8575 34.131 -0.035451 -0.0840765 -0.0117253 
27 2 59.2809 26.1931 30.5821 0.0490101 0.0720746 0.0719777 
486 1 71.3531 -10.2073 7.81049 -0.015204 0.0222522 -0.0132187 
502 2 71.8992 -9.58383 6.99673 0.00839809 -0.0101288 -0.0672265 
489 1 71.3015 -11.455 8.32414 0.0232745 0.0196567 0.00649441 
391 2 80.6377 -5.70019 11.679 0.060612 -0.0282611 0.0669598 
379 1 80.313 -6.32475 10.7538 -0.0123327 0.0163904 0.00766016 
395 2 80.9032 -11.533 8.64295 0.000118916 0.0101338 -0.0246753 
372 1 81.392 -11.9742 11.0447 -0.0184431 -0.0156991 0.00667967 
383 1 80.9029 -11.3993 9.67579 0.00698346 -0.0201714 -0.00805524 
380 1 80.5207 -10.057 10.0747 0.02611 -0.0290429 6.38951e-06 
392 2 79.6675 -9.165 10.5153 0.0200341 -0.0444172 0.0403803 
370 1 81.4687 -8.85623 10.5803 0.00247327 -0.00137657 -0.0307093 
376 1 80.9897 -7.42212 11.1865 -0.00315993 0.00519637 -0.00188231 
364 1 82.1724 -9.60907 11.786 0.000710632 -0.016817 0.00161023 
324 2 78.9999 -10.6248 18.3181 -0.0560964 0.0500078 -0.0151222 
312 1 78.8371 -11.2894 19.1287 0.00406222 -0.0146286 0.0141822 
311 1 77.5347 -11.863 19.2822 0.0301794 -0.00778638 0.0247764 
320 2 75.3477 -11.6343 18.4075 -0.0257362 0.0247397 -0.0335344 
365 1 81.7709 -11.4759 13.3734 -0.00473371 0.0154856 -0.0189479 
366 1 82.2032 -11.0423 12.0129 -0.0198496 0.0168748 -0.00414533 
388 2 81.4829 -5.36261 13.25 0.0633433 0.0820997 -0.00181815 
369 1 81.8694 -11.1396 15.87 0.0106316 -0.00640156 -0.00649508 
363 1 82.0124 -10.63 14.4711 0.0166709 0.00344763 0.00121072 
361 1 81.8024 -9.29127 14.2293 -0.0178811 0.00418152 0.000875506 
362 1 81.8326 -8.64582 12.9862 0.0133023 -0.0246221 0.00628038 
367 1 81.8795 -8.35073 15.337 0.0162493 0.0140705 -0.0118139 
373 1 81.5137 -7.02498 14.9569 0.00684925 0.00351789 -0.00180918 
368 1 81.1317 -7.58056 12.5723 -0.0171026 -0.00333091 0.0047509 
375 1 81.2744 -6.37096 13.5729 -0.0198888 -0.0091516 -0.00701998 
377 1 81.207 -10.175 16.6649 0.00853557 -0.01321 -0.00712697 
374 1 81.5324 -8.86348 16.7874 0.00946833 0.0216646 -0.010805 
389 2 81.268 -10.8546 17.5232 0.044948 -0.0543255 0.0251312 
387 2 81.7607 -6.29906 15.8115 -0.0385357 0.00370811 0.0263225 
386 2 81.4739 -8.32456 17.7321 0.070777 0.0946815 -0.00525779 
36 2 64.7032 24.1322 -10.2636 0.0533404 -0.0602534 -0.0104659 
167 1 79.3418 32.2917 11.5484 -0.00826006 -0.0237886 0.0179149 
179 2 78.9962 20.0507 -10.0059 0.0256865 -0.13323 0.0385943 
24 1 64.2095 24.3578 -11.2026 -0.00829057 -0.00414971 0.000135364 
108 2 73.7444 29.7922 3.95626 0.043852 0.122586 -0.0987462 
493 2 76.7707 29.14 6.13091 -0.0117003 -0.00787068 0.00870608 
483 1 76.0171 29.7911 5.35494 -0.00045943 0.00244019 -7.90212e-05 
532 2 83.8676 25.8366 3.47723 -0.000695964 -0.0307151 -0.00974887 
494 2 72.5662 31.068 2.54067 0.0089093 -0.0342963 -0.106286 
475 1 73.217 30.763 4.16915 0.0226421 0.00861902 -0.00386763 
469 1 73.908 31.2771 5.54098 0.0196268 -0.00519189 0.0198519 
482 1 72.8065 31.8568 3.44785 0.00963956 7.8117e-05 -0.00135949 
485 1 73.2265 33.2553 3.51599 -0.0139835 0.00896296 0.0455197 
498 2 72.9929 34.3854 2.86074 0.0228123 0.106101 0.019311 
501 2 73.9574 35.7298 4.25252 0.0166162 0.0706378 0.0513676 
477 1 73.4594 33.7335 5.03947 -0.0115429 -0.00197928 -0.0170077 
178 2 79.1466 32.9215 8.57761 -0.0273075 -0.0276054 0.0780758 
471 1 73.4883 32.4945 5.9974 0.0125433 -0.0257115 0.035946 
488 1 73.6803 35.1988 5.18958 0.0138972 -0.0133416 0.00202907 
491 1 74.3638 35.2283 6.51375 -0.0190012 0.00131897 0.00745579 
539 2 78.1105 20.0536 -10.2161 0.0320095 0.0216763 0.00683804 
174 2 77.3654 25.9862 6.78505 0.0547612 0.0389331 -0.00653276 
165 1 76.9944 27.8855 7.90788 0.01743 0.00934237 0.00472879 
155 1 77.2451 28.9471 8.51855 -0.00100692 -0.00220349 -0.00642736 
162 1 77.3583 26.5373 7.72417 0.0166963 -0.00336941 -0.00238308 
157 1 81.3354 25.4423 11.1316 -0.0195333 -0.0251084 0.0212814 
173 2 78.3724 24.8669 9.13301 -0.0168652 -0.0391821 -0.00332395 
158 1 80.7472 25.497 8.84645 0.0279951 -0.00691923 0.00318356 
161 1 79.2309 25.3544 8.61898 -0.0292137 -0.00601444 0.00564899 
153 1 78.5356 26.6442 8.51716 0.0132489 -0.0100798 -0.00676838 
151 1 81.0142 26.3574 9.9831 0.00432702 0.00234862 0.0132543 