ITEM: TIMESTEP
250000
ITEM: NUMBER OF ATOMS
576
ITEM: BOX BOUNDS pp pp pp
-1.2000000000000000e+01 8.4000000000000000e+01
-1.2000000000000000e+01 3.6000000000000000e+01
-1.2000000000000000e+01 3.6000000000000000e+01
ITEM: ATOMS id type x y z vx vy vz 
273 1 -5.40225 0.981446 4.75931 -0.0146566 0.0176354 0.0300572 
281 2 -7.56316 -0.0590844 7.56743 -0.0644178 -0.0295139 -0.0487546 
261 1 -6.45419 -0.929139 5.91496 0.0144451 -0.0116766 0.00287857 
255 1 -5.20423 -1.77849 5.78317 0.00934672 0.00267923 0.0217299 
262 1 -1.56627 -3.95485 4.89018 0.00400209 -0.0301105 0.0130428 
256 1 -2.92351 -3.68194 5.12716 -0.0234616 -0.023701 -0.0117577 
258 1 -3.36348 -2.56457 4.53674 -0.018453 -0.0192435 -0.0215773 
271 1 -0.849261 -4.50842 6.04388 0.00463294 0.0109323 0.00234002 
264 1 -2.5567 -2.43381 3.34522 0.0100057 -0.00391259 -0.0153441 
257 1 -4.37016 -1.56839 4.5666 -0.00256218 0.0253693 -0.00588345 
275 1 -1.68705 -3.53883 2.77138 -0.00629308 -0.0268954 -0.0124868 
276 1 -2.89154 -1.20363 2.56478 0.0216719 0.00388237 0.0136179 
274 1 -3.54612 -0.00017399 3.11121 -0.0144643 -0.0170993 0.0246029 
272 1 -0.733218 -3.98693 3.78403 -0.00396794 -0.00583953 -0.00149679 
287 2 -1.89284 -3.91144 1.67769 0.0750597 0.0225173 -0.0445741 
283 2 0.179032 -4.56359 6.09629 -0.0108613 0.00472544 0.0526357 
263 1 -4.45238 -0.12785 4.23657 -0.0200836 -0.0161664 0.0133376 
284 2 0.28506 -4.1327 3.72646 0.0496104 -0.0285053 0.0599029 
270 1 -6.63188 0.407207 5.20083 -0.00160999 0.00411117 0.0401579 
285 2 -4.63561 1.95535 4.55539 0.0227616 -0.0535846 0.0176049 
286 2 -3.35634 1.08447 2.61193 0.0551399 -0.00149054 0.040636 
288 2 -2.63281 -1.55386 1.5044 -0.0759501 -0.045438 0.0240965 
269 1 -6.82261 -0.649809 7.27381 -0.00441239 -0.00207154 0.00564827 
278 2 -6.80651 -1.03206 9.28202 0.0448522 0.0721925 -0.103603 
266 1 -6.10205 -1.02019 8.4173 0.0108281 0.00657732 -0.00916737 
277 2 -4.6977 -2.79548 10.0482 0.0187398 0.0424547 0.0854816 
253 1 -4.81185 -2.71429 6.62736 -0.0228847 0.0195244 -0.000965154 
254 1 -3.67729 -3.65143 6.44626 0.00731001 0.00974376 0.00498227 
268 1 -1.45717 -4.3156 7.32774 -0.00114852 -0.0114383 -0.0030376 
259 1 -5.19429 -2.04593 8.05928 -0.00455076 -0.00912195 -0.0262753 
260 1 -2.7942 -3.77756 7.58285 -0.0192725 0.0398246 0.015982 
265 1 -4.42862 -2.65155 9.10897 0.0185923 -0.0274908 0.0225052 
267 1 -3.31032 -3.56775 8.94382 0.00774508 0.0093167 0.0346479 
279 2 -2.5293 -3.35175 9.66711 0.0423851 0.0114807 -0.0423051 
280 2 -1.27483 -4.31127 8.56644 -0.0428408 0.0656611 0.033835 
204 1 2.32068 -9.64672 22.6529 0.0050701 0.0242478 0.0109341 
202 1 3.30553 -8.7138 23.2463 -0.0281645 0.0187457 0.0198392 
191 1 4.32474 -9.86738 23.5408 -0.0022325 0.00878 -0.00699542 
192 1 1.82483 -11.069 22.4682 -0.021959 0.00464162 0.0028592 
214 2 3.09701 -7.57841 23.6453 -0.056055 0.001799 0.000492988 
215 2 -0.234806 -11.656 21.9889 0.00348713 -0.0291784 -0.0177238 
210 2 6.88598 -10.3022 25.8164 0.0405796 0.0702168 0.0240678 
185 1 4.71307 -11.1455 22.9114 -0.0189742 0.0147476 -0.0153762 
213 2 4.78386 -8.82823 25.5562 -0.00954433 -0.00409489 -0.0149466 
201 1 4.94081 -9.76272 24.6983 -0.0206312 0.0273661 -0.00925379 
216 2 -8.37569 -4.25706 23.9422 -0.064331 0.00481922 -0.0231419 
198 1 6.27929 -10.3549 24.77 0.0138057 -0.0360621 0.013567 
186 1 3.39709 -11.8117 22.4262 0.00977548 -0.0205082 -0.00476597 
189 1 6.73789 -11.35 23.7318 0.00447429 0.00896708 -0.017387 
203 1 0.794292 -11.8698 22.3221 -0.0179735 -0.00696907 0.0208837 
183 1 6.03581 -11.5939 22.4257 -0.0105076 0.0199788 -0.0110698 
70 2 -11.4951 16.1767 21.769 0.00754467 -0.0257522 -0.0711016 
47 1 -11.8079 16.8722 23.7567 -0.0113229 -0.0245434 -0.00689405 
206 2 8.34921 33.4774 24.5444 0.0429635 0.0423998 0.0160297 
69 2 -12.0051 17.878 21.6906 -0.0344524 0.000874776 -0.043028 
209 2 8.05751 35.8838 25.5199 0.0187512 0.0148553 0.0716419 
197 1 7.46409 35.6351 24.4358 0.0212135 -0.0289154 -0.00194753 
207 2 6.63911 31.3494 20.7549 -0.0690031 -0.0398296 0.0424895 
208 2 3.53656 31.241 21.1528 0.0244599 0.0559693 0.106866 
196 1 3.6248 32.2076 20.8277 -0.0138697 -0.0212128 0.0096456 
211 2 1.54894 32.684 20.8395 0.0367512 -0.0328483 0.000990504 
199 1 2.59092 33.1327 20.6015 0.0145697 -0.0015918 0.0222161 
212 2 1.11243 34.178 22.7681 0.0407274 -0.145877 -0.0469835 
200 1 1.21519 34.7341 21.8835 -0.0146078 0.023288 -0.0351188 
190 1 2.46262 34.4412 21.1691 0.011665 -0.0170096 0.000762196 
184 1 3.60953 34.9134 21.7704 0.00802122 0.0135745 0.00905253 
194 1 7.64649 34.2465 23.8817 -0.00496273 0.00269746 -0.00113208 
188 1 4.91533 32.8861 20.823 0.00798767 0.00235586 -0.018584 
182 1 4.91004 34.3629 21.3786 0.00150081 0.0293867 -0.0265468 
181 1 6.08376 35.0125 21.9957 -0.0143905 0.0091343 -0.0175001 
58 1 -11.5423 15.7561 22.7096 -0.00608951 -0.00601455 0.0179155 
195 1 6.28225 32.3889 20.9522 -0.0211578 0.00905176 -0.00612978 
193 1 7.2141 32.7185 22.0615 0.00555895 0.0227521 -0.0107702 
205 2 7.83936 32.0586 22.4709 0.051509 -0.00588705 0.0311564 
187 1 6.9007 34.0683 22.6966 0.000580434 -0.0136137 -0.00689183 
65 2 -11.7431 21.3249 24.5434 -0.0106842 -0.119203 -0.0419967 
450 1 35.597 -3.13713 18.3221 -0.0131557 0.0116528 0.01305 
465 2 33.8944 -2.51126 17.2139 0.0220612 -0.00401692 -0.0533427 
453 1 34.7352 -2.2678 17.6878 -0.0184871 -0.00847683 0.00751885 
443 1 34.5684 -0.822515 17.7701 0.00856233 4.81857e-05 -0.00932883 
444 1 32.9746 0.920621 19.1801 0.0202498 0.00883102 0.0039981 
454 1 33.4235 -0.184365 17.0918 -0.0159007 -0.0382685 0.00330468 
466 2 33.1845 0.283157 16.1192 0.0582544 0.0668392 0.0372429 
456 1 32.5826 0.436645 18.0032 -0.0395156 -0.0118895 0.00719825 
468 2 31.7273 0.51666 17.4943 0.0593077 0.0367639 0.0510777 
71 2 21.1839 5.77074 35.4267 0.0566262 0.0122074 0.0734868 
462 2 34.9945 -4.07468 18.5614 0.0272718 -0.111243 -0.0588179 
437 1 35.0986 -0.413211 19.1893 0.0321741 -0.0140748 0.0171509 
451 1 35.055 3.40749 22.1529 0.00354509 0.0184026 0.00797184 
467 2 31.2184 2.3763 19.7335 0.0154289 0.0755278 -0.0577643 
463 2 34.3274 3.76762 22.8111 -0.0214728 0.0177733 0.0733336 
442 1 34.4102 2.69816 21.0658 -0.021963 -0.00751992 -0.0143216 
438 1 34.4571 0.806343 19.4739 0.0187049 -0.000444387 -0.000874513 
452 1 32.8714 2.36249 21.0245 0.00409868 -0.0190138 -0.029065 
455 1 32.0059 1.5894 20.1565 0.03176 -0.0125456 0.0149573 
436 1 34.9569 1.42668 20.5588 0.0044295 -0.00880025 -0.0120039 
464 2 31.9376 3.13478 21.0687 -0.0386678 0.0470328 -0.0465467 
431 2 27.851 16.421 -6.07854 0.000571588 -0.0327783 -0.0271527 
408 1 29.6586 16.9747 -4.82321 -0.0295759 0.0113348 0.0101323 
432 2 30.2924 15.5292 -6.10123 -0.0177465 0.0818281 -0.00947873 
420 1 30.7353 16.4467 -5.63029 0.0258208 -0.0261103 0.0152882 
418 1 31.9378 16.7079 -5.94049 -0.0183972 -0.0227471 0.0205302 
430 2 32.6375 16.2978 -6.62414 0.0232151 -0.0338786 -0.0273371 
417 1 32.952 18.7127 -6.69109 -0.0139459 0.033949 0.0306425 
414 1 33.1658 20.1329 -6.66594 -0.0195158 -0.00375987 0.00622308 
429 2 33.6792 17.66 -7.20568 -0.0169686 0.0621413 0.1261 
407 1 32.1856 18.1799 -5.63337 -0.00421074 0.000537184 -0.00650165 
401 1 31.1908 18.6981 -4.96249 -0.0121826 0.00310699 0.0117366 
426 2 33.3435 20.6373 -7.5928 0.0524076 -0.0741323 0.0225874 
419 1 28.3096 16.6218 -4.95251 -0.00664491 0.000766475 0.0275382 
428 2 27.391 16.6276 -3.23376 -0.0420092 0.0795734 0.0932019 
416 1 27.2146 17.1769 -4.14204 0.00352571 0.0103397 0.016139 
427 2 26.1447 18.7949 -3.04327 0.103348 0.0514336 0.0747595 
406 1 27.8205 18.3187 -3.48087 -0.00378099 -0.00450644 -0.0100971 
415 1 27.006 19.2659 -2.54774 -0.0106014 0.0220696 -0.0174664 
412 1 27.5869 20.4898 -2.10009 -0.00248583 0.0233352 -0.00100789 
424 2 26.995 20.6801 -1.30307 0.0869128 0.0198986 0.0153511 
404 1 29 20.8087 -2.09137 0.0195469 -0.0301579 0.0185704 
423 2 29.3535 22.5061 -0.529981 -0.0651217 0.0322921 -0.0630461 
411 1 29.6738 21.9655 -1.50378 -0.0092034 -0.00362303 0.0197231 
400 1 29.2207 18.8185 -3.49137 0.00451889 0.00892208 0.0104769 
405 1 32.4489 20.866 -5.57359 -0.0104103 -0.0217653 -0.00687266 
402 1 29.9234 18.2785 -4.46968 -0.0115287 -0.00583988 0.0222295 
421 2 31.3788 23.4454 -2.08798 -0.0567116 0.0414342 -0.0847205 
409 1 30.707 22.5443 -2.28537 0.0201276 0.0325895 -0.0173974 
398 1 29.5518 20.1881 -3.37037 0.00662656 -0.0250671 -0.0227921 
399 1 31.4714 20.0091 -4.95212 0.012078 -0.00978714 -0.0184172 
413 1 33.2656 21.787 -4.76297 0.0152904 -0.00934985 0.0339767 
397 1 30.7361 20.4828 -3.94717 -0.0236894 0.00236581 -0.00508403 
410 1 32.2035 22.2404 -3.86907 0.0213921 -0.0134016 0.00336689 
403 1 31.2386 21.74 -3.19654 0.00861824 -0.00695098 0.00635772 
422 2 33.1623 22.8858 -3.28345 -0.0529474 0.0325782 0.0535689 
425 2 34.0109 22.2567 -5.34774 -0.0125722 0.00562645 0.00900528 
546 1 23.2068 18.4068 4.64241 -0.00941251 0.0301809 0.0334184 
544 1 22.6975 16.9908 4.55796 -0.0137413 0.0136868 0.0271918 
563 1 23.5295 18.5822 2.20578 -0.0101273 0.0285935 -0.0153732 
575 2 24.3112 19.1349 1.74486 0.0268503 -0.0526872 -0.0896503 
559 1 21.6234 15.3574 3.15455 -0.0308411 -0.00278796 0.0213871 
542 1 23.2001 16.0762 5.55956 0.00560288 0.0217065 0.00934999 
556 1 22.1561 14.3755 3.98543 -0.0019726 0.00869027 -0.00692472 
548 1 23.186 14.7682 4.98965 -0.00266298 0.0212508 -0.00730802 
568 2 21.6069 13.4004 4.04637 -0.12126 0.0943849 -0.130859 
560 1 23.1255 17.2779 1.99241 -0.00435457 0.0301533 0.0180684 
572 2 23.2455 16.7069 1.19453 0.0135056 -0.0720924 -0.0864902 
550 1 22.2874 16.7442 3.12713 -0.000988297 0.00791474 0.016499 
571 2 20.8903 15.2658 2.48378 0.0334596 -0.0218926 0.0554897 
545 1 23.7355 18.6669 6.01077 0.00982937 0.00277173 -0.000524749 
552 1 23.317 19.3115 3.62054 -0.00122715 0.00173723 0.0158744 
564 1 24.0103 20.5932 3.94971 -0.0128709 0.0129782 0.0172378 
576 2 24.3853 21.3775 3.1064 0.0614059 -0.0367851 0.0137233 
551 1 23.399 19.8788 6.35578 0.027345 0.0154672 -0.0227187 
562 1 23.5964 20.9886 5.29733 -0.000328019 -0.00429739 -0.0213893 
574 2 23.3949 22.2026 5.44527 -0.0306119 0.0185613 -0.0553288 
543 1 24.0691 17.701 7.21269 0.00216029 -0.00498079 0.00178846 
565 2 24.6789 13.3475 7.51587 0.0320717 -0.0152629 -0.0592251 
541 1 23.886 16.4571 6.70195 -0.0137227 -0.0241815 0.0249857 
566 2 25.018 14.9031 9.82996 0.0604137 0.1072 0.0223394 
553 1 24.1807 14.2882 7.25592 0.017382 -0.0230843 -0.0044548 
547 1 24.1364 15.5249 7.64547 -0.0101621 0.0291474 0.0102187 
555 1 23.401 13.8779 6.10723 0.0169342 0.00868551 -0.0335184 
549 1 24.5584 18.142 8.46774 0.0359644 0.0117513 -0.0128547 
567 2 22.5531 13.2076 6.39491 -0.0169441 -0.0763349 -0.0170616 
569 2 25.4233 17.2179 10.3739 -0.164285 -0.00785018 -0.0281095 
557 1 25.0416 17.0562 9.46292 0.0101423 -0.0281514 -0.0150334 
554 1 25.0359 15.6506 8.99372 -0.0105103 0.00305965 -0.0084255 
561 1 24.0391 20.1836 7.76515 0.0323083 -0.0108185 -0.00934239 
573 2 23.7606 21.3326 7.83327 0.0319927 -0.0167492 -0.0263378 
570 2 25.7762 20.0862 9.12753 -0.0507314 -0.0208485 -0.0420852 
558 1 25.1223 19.4724 8.4231 -0.000164513 -0.00154675 0.025519 
108 2 34.3187 31.5998 5.47201 0.0288298 0.0262572 -0.0533251 
179 2 32.1756 32.3946 12.4825 0.0717462 0.00317821 -0.00663068 
105 2 13.7216 13.9458 31.5909 0.00592112 -0.0294541 -0.00158948 
243 2 40.2957 5.66451 -10.985 -0.00812553 0.0589105 -0.0362397 
282 2 52.8084 -8.49496 -9.4203 0.0105351 -0.065675 -0.0334116 
3 1 55.7974 6.61535 -11.0177 0.0308742 -0.0095989 -0.019935 
4 1 58.6831 5.56104 -10.5574 -0.00605242 -0.00339984 -0.0128315 
11 1 56.6572 8.64803 -10.508 0.0158891 -0.000364004 0.0103208 
231 1 40.1829 6.94652 -11.506 0.00933457 0.00551296 -0.0253585 
30 2 53.3186 8.98202 -10.3463 0.0110334 0.135441 -0.0113746 
241 2 38.7574 7.473 -9.86918 -0.00812348 0.0905685 0.0200858 
229 1 39.5496 7.9269 -10.4145 0.0271475 0.0109348 -1.47654e-05 
230 1 39.7604 10.1908 -9.59458 0.0103415 0.0131603 -0.00628643 
242 2 39.1111 10.1437 -8.91381 -0.100726 0.109764 -0.060977 
233 1 40.2321 11.4243 -10.1161 0.00716154 -0.0032077 -0.00308915 
225 1 41.0702 11.6143 -11.3547 0.0122302 -0.00443867 0.0132115 
223 1 39.8905 9.20659 -10.8462 0.016819 0.0361507 -0.0401131 
22 1 57.6814 9.63788 -9.8902 -0.00896172 -0.00176967 0.0269431 
1 1 56.3546 5.53414 -11.7553 -0.00946119 -0.00205696 -0.00479524 
2 1 57.6458 4.92983 -11.4225 0.0149427 0.0149457 0.018597 
18 1 54.1324 8.41551 -10.4052 0.00751159 0.0190981 0.00595234 
5 1 56.6345 7.26308 -10.106 0.000515249 -0.00768726 0.00249951 
21 1 55.3437 9.12227 -10.5047 -0.00523308 -0.00784172 0.0147145 
9 1 54.4578 7.20734 -11.1461 0.000644311 -0.0412982 0.0124388 
34 2 57.8614 10.7801 -9.8925 -0.0118512 -0.0586673 -0.0473197 
6 1 58.1031 6.77369 -10.0558 -0.00114464 0.0044455 0.00479725 
24 1 59.0423 9.45169 -9.6082 0.00874806 -0.0112631 0.0163404 
12 1 59.1644 7.85224 -9.93261 0.0229013 -0.00390659 -0.00736955 
29 2 52.4991 6.72104 -11.3791 0.00452707 -0.0461257 -0.00277898 
33 2 55.1435 10.3234 -10.4538 -0.016265 0.09176 -0.159947 
166 1 54.4091 11.8383 11.7996 -0.00518584 -0.00151269 -0.00772609 
178 2 54.5385 10.9705 11.0491 0.0183406 0.00330101 0.0428124 
321 2 42.753 -11.8155 -10.0916 -0.0187956 0.0288281 -0.0104757 
17 1 53.4292 6.34313 -11.8477 0.0065975 0.0102559 0.0216028 
245 2 40.3525 11.7834 -9.11721 0.0312263 0.012656 0.00135324 
168 1 55.4462 11.2387 12.6104 -0.0145199 0.0085756 -0.0175448 
240 1 42.0038 11.7076 31.8274 0.00387336 -0.0218989 -0.00689881 
167 1 57.7651 10.9385 13.2856 -0.015957 -0.00252505 -0.00150335 
176 2 57.3896 9.89631 13.3625 0.00932179 0.0487273 -0.0140906 
180 2 56.0448 10.331 12.7409 -0.00754621 0.115217 0.0317237 
461 2 38.3159 -3.64042 18.8624 -0.0395959 0.059027 -0.0102512 
446 1 38.7839 -1.68645 20.5194 0.0116471 0.0236361 0.0184893 
449 1 38.0286 -2.60014 19.5404 0.015115 0.00561526 0.00808946 
458 2 39.9679 -2.15098 20.4341 -0.0168034 0.00656035 -0.00722698 
457 2 39.4345 -0.720193 23.0055 -0.0906939 -0.0633826 0.0177057 
445 1 38.8415 0.113238 22.4064 0.0280188 0.0301713 0.00878703 
433 1 36.9216 -0.282267 20.8009 0.0213471 0.00110924 0.00551586 
439 1 38.0002 -0.637932 21.582 0.00935791 -0.00228008 0.0237331 
459 2 38.7074 1.94923 23.5565 0.0187669 0.0356779 -0.0703492 
447 1 38.2858 1.3045 22.7669 0.0118636 -0.0143435 -0.0162602 
244 2 40.6805 4.91819 34.1291 -0.00348597 -0.0229686 0.0667192 
232 1 40.6263 5.96417 34.0402 -0.0216185 0.0294459 0.0113585 
440 1 37.0123 1.69616 22.2746 0.0175669 0.00869926 0.0025375 
247 2 41.1382 5.95527 32.2259 -0.070724 0.0683989 -0.0340869 
26 2 53.0193 4.38651 35.6132 0.0449785 0.0169682 0.0143782 
14 1 53.8663 5.22578 35.4621 -0.0281731 0.0086853 -0.014195 
7 1 55.3735 5.19389 35.5115 0.0262146 0.00531082 -0.00507777 
25 2 56.0875 2.8653 34.7387 -0.0123291 0.00102446 0.0305896 
13 1 56.1069 4.04716 34.6075 -0.0103723 0.00862228 0.00326671 
460 2 36.2398 2.84113 24.0253 0.042179 -0.0472599 0.034791 
226 1 40.6976 8.00863 32.3448 -0.00865741 0.0155599 -0.00446121 
15 1 57.4277 3.99155 34.0885 0.00445723 0.00119787 0.0180201 
27 2 58.2003 3.7916 33.4971 -0.0901644 -0.0261953 0.0846361 
8 1 58.3301 4.35544 35.2539 0.00606909 0.0104275 -0.0190728 
224 1 40.2227 7.06572 35.1989 -0.0133673 0.0115638 0.0229926 
222 1 41.2464 10.1103 32.9545 0.0132471 -0.0275563 0.00946608 
218 1 40.5526 8.46713 34.8718 0.0279343 0.00483248 -0.00906927 
221 1 41.2695 11.0167 34.1811 -0.00354163 -0.0137564 -0.023885 
220 1 40.4074 8.89184 33.4502 -0.00789173 0.0132464 0.00105513 
251 2 43.0226 9.78452 30.3803 -0.089294 -0.0869841 -0.042179 
228 1 41.3476 10.4316 31.5358 -0.0158006 -0.016618 0.0179246 
248 2 41.4792 7.53707 29.9774 0.00692203 -0.00745684 -0.0739552 
239 1 41.9477 9.48833 30.6841 0.00443277 -0.0174349 -0.0199365 
236 1 41.3542 8.26229 31.02 -0.00743613 -0.00725772 0.00868716 
448 1 36.2322 2.80216 22.8849 0.0100713 0.0207918 0.010622 
219 1 41.1611 10.7128 35.6264 -0.000903069 0.0165719 0.00555885 
434 1 36.3902 1.02557 21.1263 0.0104044 -0.0117736 -9.46136e-05 
235 1 40.766 6.55062 32.8771 0.00991262 0.0144505 -0.0143494 
435 1 36.4655 -0.810188 19.3541 0.00365601 -0.0103486 0.00711756 
217 1 40.6608 9.42527 35.9491 -0.0258895 0.00632963 0.0230826 
441 1 36.5939 -2.27209 19.1923 0.0302416 -0.0100382 -0.0038484 
156 1 56.715 11.9458 12.7179 -0.00214705 0.00882074 0.00742261 
16 1 59.8202 4.25486 34.942 0.0122172 0.0318118 -0.0180138 
252 2 42.7052 11.5585 31.0357 0.00122968 0.0144146 0.0652069 
246 2 41.3309 14.071 -11.439 0.0420172 0.0225572 0.00357609 
234 1 41.3349 12.9899 -11.8584 -0.0163612 -0.0144322 -0.0114681 
538 2 43.8824 22.9478 -9.03535 0.00219045 -0.0494658 -0.0143984 
526 1 44.5589 23.5046 -9.67331 -0.00262926 0.0286257 0.00570412 
528 1 45.6253 22.9618 -10.5024 0.0188175 -0.00600858 -0.000385486 
153 1 54.1394 16.2607 11.4262 0.000556555 0.0251967 0.0252809 
521 1 42.7511 28.3795 -11.5104 -0.0101394 -0.0156944 -0.0224527 
516 1 46.0666 23.1772 -11.8684 -0.00153305 0.000603977 0.0145674 
513 1 42.7625 27.0442 -11.0306 0.0104504 0.0010948 0.00247883 
522 1 42.3586 26.5361 -9.57727 0.00141553 -0.0104329 -0.013145 
525 1 43.0916 25.6217 -9.25642 0.0071585 -0.000722068 -0.0167295 
507 1 43.5151 26.3486 -11.9445 0.00466336 0.0176523 0.00068978 
515 1 43.8847 24.7263 -10.0112 -0.0120042 0.00739028 0.000136301 
509 1 43.9876 25.0075 -11.4964 0.00880737 -0.0140657 0.00549451 
534 2 41.8313 27.4585 -9.03968 -0.0145736 -0.0147149 -0.0212405 
533 2 41.546 28.3229 -10.8292 0.014916 0.0345823 0.000346277 
296 1 48.4608 30.3303 -10.6082 -0.00516704 -0.0252971 0.0115925 
162 1 53.0617 15.45 10.7126 -0.0112022 0.0452741 0.00958676 
316 2 49.8263 29.9139 -8.59974 -0.0154015 -0.0975256 -0.0352991 
304 1 49.2128 29.7223 -9.49239 0.0124645 -0.0236211 -0.0125847 
145 1 56.6011 16.1734 12.0075 0.0056208 -0.015042 0.0243021 
165 1 53.1068 14.0462 11.2812 0.0119206 -0.0194973 0.0232534 
290 1 47.6176 31.3715 -10.1009 -0.00107312 0.0291384 -0.0293263 
289 1 47.0809 32.3035 -11.0914 0.00521507 -0.00586242 -0.0515788 
292 1 47.1179 31.6877 -8.74908 0.0272957 0.0233145 -0.015647 
291 1 46.0577 33.3108 -10.7865 0.0152313 0.0409929 0.009913 
310 1 44.0116 33.8502 -8.0688 0.0114903 0.0324795 0.032133 
299 1 44.3888 34.4897 -9.53983 -0.0121329 -0.00566334 -0.00326499 
293 1 45.6903 33.7068 -9.49184 -0.00153733 0.015626 -0.0326379 
309 1 43.6577 35.4593 -10.3208 0.0127556 -0.0267699 0.00723061 
322 2 43.1621 34.4045 -7.68404 0.0459483 0.0275056 -0.00933407 
306 1 44.473 35.5287 -11.4888 -0.00776526 -0.0158097 -0.00788733 
294 1 46.5255 32.8789 -8.49246 -0.0172336 0.0195695 0.0187236 
297 1 45.4988 34.399 -11.7046 -0.0235942 -0.0134396 0.0335032 
312 1 44.6796 33.1436 -7.04607 -0.0255852 0.0111533 0.0129889 
298 1 47.9224 30.8782 -7.74375 0.00223433 -0.000726485 -0.0209449 
300 1 46.114 32.5739 -6.96154 0.00629723 0.00304149 -0.0271866 
324 2 43.7667 32.9949 -6.39399 0.0542302 -0.0411772 -0.0536084 
147 1 55.3952 15.5008 11.4127 0.0203075 0.019094 0.0317316 
319 2 47.1618 29.0241 -8.46556 -0.0141401 0.016122 -0.0475732 
307 1 48.1193 29.5002 -8.42031 -0.0117412 0.0050591 0.0133237 
308 1 47.2643 30.4983 -6.49321 0.0100286 0.0150097 -0.0258645 
311 1 46.7036 31.7457 -5.98977 -0.0155671 -0.0301948 0.00546747 
323 2 46.6046 32.236 -5.049 -0.04057 0.0367056 -0.046638 
320 2 47.3298 29.799 -5.81878 0.0767415 -0.0482265 -0.0697373 
173 2 52.7304 17.858 12.0525 -0.0208725 -0.00678073 0.0504401 
174 2 52.3366 16.1184 10.8115 0.0285774 -0.0895338 -0.0205175 
150 1 56.6305 13.4804 12.3117 -0.0102716 0.0281409 -0.0233868 
154 1 59.0636 13.4391 13.1826 -0.013157 -0.00608587 0.0114296 
146 1 57.8962 15.4304 12.3664 -0.00601394 -0.00436584 0.0215256 
148 1 57.9614 14.0976 12.3118 -0.0372784 -0.0157632 -0.000184998 
164 1 58.7285 12.1399 13.6271 0.0402088 -0.0252915 0.00225668 
152 1 58.8752 16.2435 13.0459 -0.0112057 -0.00267169 0.00463787 
159 1 58.3762 17.4715 13.3486 -0.0291633 -0.00247455 0.0087665 
169 2 58.7806 18.2766 14.0266 0.0750164 0.0444849 0.0643147 
157 1 57.323 18.2361 12.715 -0.00931935 0.010078 0.00030954 
227 1 41.7036 12.2783 33.9679 -0.00332574 0.00810705 -0.000579217 
238 1 41.9721 12.8534 32.692 -0.00721686 0.0058437 0.0116494 
237 1 41.642 13.4865 34.9163 0.0219027 -0.00032426 0.00911061 
249 2 41.7387 14.3204 34.1559 -0.0705824 -0.104106 0.0725262 
250 2 42.4755 13.8305 32.5901 -0.0636546 0.0191172 -0.0234888 
315 2 49.2061 29.2961 36.0702 -0.033349 -0.0182995 0.00827583 
170 2 55.0539 19.1743 12.3726 0.0759224 -0.0505911 -0.00948021 
158 1 54.8792 18.2098 12.134 0.00936636 -0.0083083 -0.0212627 
527 1 46.7459 22.4551 35.1214 -0.000259119 0.00206341 -0.0141892 
524 1 46.4512 22.73 33.884 -0.0231606 0.004945 -0.0381179 
313 2 48.6344 30.8837 33.8142 -0.0660361 0.140744 -0.00323977 
511 1 44.2627 28.4013 34.7725 0.00726474 -0.0200269 -0.0181817 
519 1 44.1008 27.9736 32.4484 -0.0210538 0.00549507 0.0157231 
301 1 48.3919 31.2177 34.8502 -0.00351642 0.0234303 -0.0355561 
520 1 45.2836 25.7844 31.7344 -0.00917235 -0.0157109 0.00507716 
512 1 44.6522 26.6088 32.6095 0.0060726 0.0192081 -0.0360069 
532 2 45.5447 26.0271 30.6551 0.0237991 -0.10947 0.0716173 
506 1 44.4901 26.1352 34.0133 -0.000636182 -0.0192437 0.0176853 
535 2 45.0286 23.5135 31.5474 0.0120323 -0.0552437 -0.00190534 
536 2 46.7433 22.4889 32.8929 -0.0567999 -0.0587296 0.201512 
523 1 45.2638 24.4224 32.1551 0.00354382 -0.00842907 0.00221229 
508 1 45.2302 24.9808 34.4941 -0.0102131 -0.0177404 0.00371449 
514 1 45.6552 24.0435 33.5077 0.00111871 -0.0113536 0.00724575 
517 1 43.8119 28.8061 33.5345 0.00580125 -0.034584 0.0190563 
510 1 45.1559 24.5751 35.8607 0.0135381 -0.00598903 -0.000395307 
505 1 44.1072 27.0036 35.0371 0.0169849 0.00649453 -0.0112713 
531 2 43.7003 28.3659 31.3616 0.0375613 -0.0282529 0.0132235 
314 2 46.4286 32.3002 33.6159 0.0411853 0.0696986 -0.0303911 
302 1 46.3518 32.5585 34.592 0.00865648 0.00894536 -0.00103608 
305 1 45.4914 33.6895 35.1044 0.0239476 9.91061e-05 0.00845031 
529 2 43.8393 29.895 33.8133 0.00147484 0.0222246 -0.0906703 
317 2 44.7232 34.3278 34.5991 0.0845263 -0.0834997 0.0185402 
295 1 47.3814 31.961 35.421 0.00870296 0.0307774 0.000914728 
151 1 56.3302 17.5623 12.1237 -0.00451774 0.00197825 -0.00984554 
171 2 57.3706 19.3862 13.0741 -0.0793201 -0.0391417 -0.0110279 
149 1 55.3297 14.0751 12.0541 -0.00347415 0.0127473 -0.0173829 
303 1 48.6751 30.2752 35.9081 0.0161948 0.021977 0.00989346 
539 2 47.5813 21.7398 34.9007 -0.0718695 0.00931326 0.126906 
518 1 43.6002 29.1786 35.8577 -0.0137671 -0.0130114 0.00192247 
160 1 59.7823 15.6011 14.0836 -0.0383301 -0.0111713 0.00157033 
318 2 43.8608 35.8177 35.5394 0.0614246 -0.00373884 -0.009569 
161 1 53.6787 17.3859 12.1368 -0.00550303 0.00728213 0.0168182 
530 2 43.9861 30.17 35.7589 -0.105771 -0.00332034 -0.0835493 
155 1 53.9796 13.2316 12.1216 -0.0167465 -0.00033386 0.0116153 
142 2 78.7823 -8.97106 -3.56176 -0.0624951 -0.052862 -0.00437021 
113 1 77.0165 -11.5842 -4.81625 -0.0311136 -0.00730933 -0.0269776 
19 1 60.5233 4.05465 -11.9453 0.00314873 -0.00790641 -0.0159709 
114 1 77.9335 -11.8037 -6.0924 0.0258252 -0.00781461 0.000962196 
120 1 78.8238 -10.6855 -6.38784 -0.00537159 -0.0147586 0.00392366 
144 2 80.4935 -9.17659 -5.52662 -0.0563835 -0.0401454 -0.0130089 
131 1 79.5304 -10.6886 -7.7835 -0.0390311 0.0140274 0.00988478 
128 1 79.1669 -11.879 -8.647 0.00220354 -0.0112811 0.0158558 
143 2 79.8205 -9.77352 -7.97895 0.023755 0.0147898 -0.0562233 
122 1 72.9269 -11.9616 -5.61954 0.024702 -0.0235161 0.0108912 
32 2 62.1813 5.84276 -10.7036 0.0599177 0.0461846 0.0599193 
20 1 60.9328 6.10783 -10.597 0.00748797 0.000272155 -0.0114168 
35 2 60.9522 8.22715 -10.89 0.0479016 -0.0496684 -0.0599778 
23 1 60.5642 7.41653 -10.273 -0.0457178 0.0207499 0.00307442 
119 1 77.6074 -10.6816 -4.02818 -0.00545634 -0.00303314 0.0259331 
137 2 72.5032 -11.4709 -3.62097 0.0689194 -0.0509565 -0.0315902 
126 1 75.2247 -10.5392 -3.16346 0.00237306 -0.00867098 -0.0197827 
125 1 73.4316 -11.7053 -4.3131 -0.0148528 0.00678235 0.00682538 
117 1 74.8792 -11.4038 -4.12112 0.00988368 -0.0086772 0.0154713 
138 2 74.6674 -10.0191 -2.17538 0.00626715 -0.0370975 0.126357 
129 1 76.6148 -10.2892 -3.15929 0.0100475 -0.0118898 0.0109346 
141 2 76.6104 -9.86943 -2.13807 -0.013888 0.0179671 -0.0268445 
130 1 78.6729 -9.69873 -4.30251 -0.00919118 -0.012877 0.000315538 
132 1 79.5221 -9.90792 -5.36583 0.0159479 -0.0114532 0.02608 
134 2 71.7356 -12.2062 -5.64745 0.0168463 -0.0943333 -0.0029297 
111 1 75.5488 -11.8865 -5.10891 -0.00254553 -0.00766812 0.00898669 
31 2 61.6798 3.53324 -11.9892 -0.00955756 -0.031247 -0.0803012 
36 2 60.0619 9.77226 -9.61317 0.0349343 0.0249598 0.00713643 
10 1 60.1744 5.15928 -10.9284 -0.0177313 -0.0104815 0.00647475 
140 2 79.8339 -11.6331 -9.82191 0.0372504 0.0658301 -0.058049 
537 2 66.0049 -0.563766 15.471 -0.0374117 -0.125184 0.0801174 
540 2 65.3356 -0.945364 15.7721 0.094568 0.034016 -0.069806 
485 1 69.5693 6.02011 14.3313 -0.0213214 -0.0018725 0.00167733 
482 1 69.1371 4.61034 14.4858 -0.00236745 -0.0119883 0.00591071 
494 2 69.4176 3.83374 13.7554 0.0465471 0.0506019 -0.0128359 
475 1 68.1301 4.53609 15.4483 -0.00281404 0.0028882 -0.0189885 
493 2 67.5144 2.13028 15.1026 -0.0188578 0.0409283 0.0144471 
469 1 68.4458 5.28809 16.6749 0.014336 -0.0112561 0.00912648 
481 1 68.023 2.99742 15.6878 -0.00932244 0.0104679 0.0130319 
497 2 69.4173 6.842 13.348 0.0311446 0.0940265 -0.00282714 
486 1 70.404 8.13931 14.6145 0.025316 0.0290686 -0.0112675 
498 2 71.2733 10.0011 14.4431 0.0760718 0.0667276 0.0443822 
477 1 69.3249 7.04047 15.2758 0.0305329 0.0341196 -0.0160394 
489 1 71.0377 8.90963 14.1647 0.0311088 -0.025765 -0.0289716 
471 1 68.5405 6.56358 16.4146 0.0152942 0.0103034 -0.0172983 
501 2 69.2753 9.48949 17.2062 0.0160263 -0.031616 -0.0489959 
499 2 70.093 2.7986 20.7818 -0.1258 -0.0745419 -0.0219177 
483 1 68.1359 3.0344 16.9631 -0.00840222 -0.0123017 -0.0460138 
470 1 68.8 4.83801 17.9344 -0.0059635 -0.00255584 -0.0174895 
476 1 68.4958 3.54833 18.3047 0.0097439 0.00396001 -0.0197505 
472 1 68.6311 5.54419 19.0749 0.00797555 0.00376186 0.00859199 
484 1 68.9048 2.54228 19.2586 -0.0104426 0.0436992 -0.0197755 
496 2 69.0269 1.4931 18.9275 0.0554862 0.0216364 0.0442478 
487 1 69.563 3.27455 20.0638 0.028139 0.0186276 -0.0155297 
478 1 69.1021 4.66833 20.2533 0.0321186 -0.0231835 -0.0320517 
503 2 69.9735 5.21459 20.922 -0.0108813 -0.0505697 -0.0236947 
491 1 67.9091 7.18399 21.3159 -0.00609047 -0.0145625 0.00238493 
473 1 68.5464 7.45907 17.6687 0.000831007 0.00313679 -0.0213775 
502 2 70.7298 10.0115 19.1468 0.00681385 0.11218 -0.0182482 
479 1 69.2116 8.70636 17.8559 -0.00730776 -0.011832 -0.0306848 
490 1 69.9403 8.88385 19.1341 0.000343614 -0.0340206 0.00903708 
492 1 69.6757 8.48053 20.4498 -0.000670255 -0.000842323 -0.0171181 
504 2 70.41 8.73763 21.3262 0.0488356 -0.0841789 0.00390604 
474 1 68.6887 6.8894 19.0348 0.00509789 0.0170059 -0.00972717 
480 1 68.5961 7.58617 20.2919 0.0239717 0.00186517 -0.000843296 
488 1 67.2383 6.84645 22.3759 -0.017845 -0.00941725 -0.0135998 
500 2 66.8273 7.49147 23.0608 -0.0171279 0.0591211 0.0614355 
28 2 60.3884 4.01115 33.9005 0.0827286 0.0739163 0.0524273 
59 1 82.8621 12.0484 26.9417 -0.0295374 0.0108926 -0.0372215 
73 1 63.6505 18.1266 -7.35425 0.0216452 0.0311019 -0.00490866 
86 1 61.9621 16.8183 -6.0369 -0.0202151 0.00138941 -0.000490733 
79 1 63.1084 16.7338 -6.93438 -0.0150279 0.0173181 0.0092708 
87 1 65.1626 15.5099 -8.2085 0.0106915 -0.0200658 -0.023075 
85 1 63.8402 15.7348 -7.66465 -0.0342276 -0.00676997 0.00965634 
97 2 63.1073 15.0013 -8.36858 -0.0641506 -0.0842966 0.0603118 
99 2 65.8975 14.8258 -8.87472 -0.0239859 0.0208529 -0.0189986 
80 1 65.9201 16.8521 -8.19406 0.00336402 -0.000407195 0.0384185 
88 1 67.461 17.0908 -8.39771 0.00185806 0.00824234 -0.0015127 
100 2 68.0486 16.098 -8.40319 0.0367442 0.0101881 0.0289421 
81 1 61.7034 19.1541 -6.36966 -0.0325738 0.00696791 0.0256137 
75 1 62.9568 19.2737 -7.11775 -0.00849341 -0.00943388 0.0244387 
90 1 60.9858 20.4954 -6.01663 0.00962401 0.0198989 -0.0088586 
77 1 63.8627 20.3785 -7.71875 0.00459808 -0.00323409 0.0206302 
93 1 61.5938 21.4994 -6.7248 -0.00492761 -0.0104507 0.0139016 
83 1 62.995 21.6774 -7.50777 -0.00608417 0.0141685 0.00514913 
94 1 63.5983 23.0781 -7.73693 0.00973707 0.0111254 0.0073583 
96 1 64.574 23.0241 -8.8493 0.0213429 -0.013929 0.0121707 
74 1 64.9437 18.1272 -8.05253 -0.0205849 -0.020188 -0.016635 
78 1 65.109 20.5772 -8.40781 -0.0121998 0.0156149 0.0141135 
76 1 65.6107 19.3235 -8.74108 0.0285828 -0.0013727 0.00196471 
84 1 65.665 21.9987 -8.51387 0.021644 0.00154079 -0.0191421 
95 1 66.5474 21.8275 -9.54354 0.0171755 -0.0108168 -0.000347256 
107 2 67.3128 22.6795 -9.89594 0.0318505 -0.0211902 -0.0676793 
82 1 67.1298 19.403 -8.99701 0.0142109 0.00574854 -0.00562698 
91 1 67.9163 18.3112 -8.86902 -0.0313901 0.0192104 0.00540758 
92 1 67.4507 20.7535 -9.5465 -0.00907445 -0.0117483 0.0363867 
103 2 68.9489 18.5417 -9.23051 0.0541254 -0.00537835 0.0210815 
104 2 68.5319 20.6402 -10.0882 0.0308631 0.00361996 -0.000674237 
106 2 64.7346 24.0911 -9.19831 -0.0276117 0.0294742 0.0271471 
135 2 73.952 33.6125 -10.1028 -0.0823195 0.0585778 -0.00770319 
121 1 73.5821 34.4471 -7.81798 -0.00420607 0.0150322 0.032274 
133 2 72.5928 34.4178 -8.27304 -0.069615 0.0122618 -0.0604005 
123 1 74.3082 33.8955 -8.98735 -0.00734469 0.0167569 0.0117656 
115 1 73.7888 35.3102 -6.61549 -0.010587 0.00976657 0.00097929 
116 1 75.7111 34.0308 -8.512 -0.033085 0.0143766 0.000677829 
124 1 76.5549 33.5422 -9.57834 -0.00193437 -0.0187894 0.0050923 
118 1 78.2391 35.1371 -8.32346 0.00112731 -0.0130246 0.0385073 
136 2 75.8438 33.0712 -10.055 0.0493033 -0.0496394 -0.0665346 
127 1 77.8609 33.9799 -9.13293 0.0251151 -0.00183642 0.0178881 
112 1 77.3666 35.2063 -6.97395 0.0196614 -0.018245 0.015928 
110 1 76.1282 34.6648 -7.12174 -0.0102724 0.0117889 0.00809455 
109 1 75.2975 35.2912 -6.1947 -0.00306601 0.0177781 0.00273264 
98 2 62.2035 15.8314 -5.11732 -0.00864867 -0.0342275 -0.0226019 
139 2 78.7601 33.893 -9.90284 0.0246246 -0.0387057 0.0945528 
102 2 61.0447 20.9815 -4.96378 0.0445775 -0.0305869 -0.0976536 
89 1 61.1107 17.8891 -5.74306 0.0211303 0.0233695 -0.0269927 