ITEM: TIMESTEP
900000
ITEM: NUMBER OF ATOMS
576
ITEM: BOX BOUNDS pp pp pp
-1.2000000000000000e+01 8.4000000000000000e+01
-1.2000000000000000e+01 3.6000000000000000e+01
-1.2000000000000000e+01 3.6000000000000000e+01
ITEM: ATOMS id type x y z vx vy vz 
89 1 5.11258 -7.39841 -9.49015 -0.00209795 0.0264129 -0.00350195 
97 2 8.15195 -7.351 -10.3771 -0.0758181 -0.0971032 0.0764665 
79 1 7.17392 -6.91743 -10.2034 -0.0177993 -0.0232689 0.00519276 
86 1 6.42466 -7.9163 -9.46826 -0.0257961 0.00357432 -0.0139026 
101 2 6.86421 -9.00473 -9.06629 0.0407867 0.0274012 0.0126036 
83 1 3.20967 -4.20205 -11.295 -0.0146079 -0.0122112 -0.0141702 
93 1 2.30363 -4.69366 -9.99265 -0.0113508 -0.00345608 0.0212132 
90 1 2.89195 -5.85539 -9.8006 0.00255434 0.000971134 0.00302514 
81 1 4.60434 -6.24271 -9.92471 0.00164703 -0.0423665 -0.00893075 
77 1 4.58704 -4.35441 -11.5772 0.0066673 0.00883311 -0.0171557 
75 1 5.29771 -5.16922 -10.6472 0.0125399 -0.024722 -0.00264586 
73 1 6.74072 -5.62913 -10.8873 0.0111465 0.00374801 0.0240997 
102 2 1.79155 -2.39382 -11.9191 0.106274 -0.00463015 -0.0404263 
74 1 7.51809 -5.08513 -11.9026 -0.0156419 -0.0209988 -0.00416089 
94 1 2.6985 -3.00147 -11.7663 -0.0182859 0.0157378 0.00626437 
176 2 9.90507 -6.87462 11.7735 -0.0148346 0.00523631 -0.0708114 
229 1 1.17176 -1.631 24.3336 -0.0156358 0.00741427 0.00803303 
241 2 1.09969 -1.23674 23.3272 -0.0681408 0.0398568 -0.0383663 
242 2 2.57889 -3.72976 22.2174 -0.0297555 0.00870949 0.0300065 
230 1 1.99553 -3.90299 23.2797 -0.0277838 0.0356348 -0.00269925 
245 2 2.74988 -5.89624 23.1998 -0.00891802 -0.0582124 0.0697619 
233 1 2.56482 -5.07851 23.9463 0.00160067 -0.00726757 -0.0115454 
237 1 4.81361 -6.12689 26.4314 -0.0299915 0.0110941 -0.0121833 
227 1 4.37747 -5.50055 27.6446 0.00379835 0.0101994 0.0219944 
234 1 4.29538 -6.08411 25.147 -0.0338078 0.00790365 -0.00261837 
238 1 5.06186 -5.58297 28.8394 0.0104803 0.0241636 0.00274985 
249 2 5.5451 -6.89359 26.8222 0.0314009 -0.0407879 0.0453733 
246 2 5.02252 -6.72369 24.7479 0.0140717 0.0220673 -0.0596654 
247 2 1.36644 -0.00329556 29.9109 0.0663434 0.0438087 0.0190682 
235 1 1.32278 -0.941055 29.0319 -0.0145149 0.0204776 -0.00189505 
244 2 0.142645 0.538711 27.7865 0.0215393 0.0408027 -0.0216726 
243 2 0.113734 0.0908969 25.181 0.0547981 0.0525042 -0.0430242 
232 1 0.394408 -0.497327 28.0308 0.00661411 -0.00243236 0.0119262 
231 1 0.694552 -0.92957 25.3696 -0.00359108 0.00909952 0.00493048 
228 1 2.87675 -5.06826 29.7807 0.0142712 0.00955423 -0.0372981 
222 1 2.49137 -4.09529 28.4132 -0.00513703 -0.0311768 -0.00383051 
221 1 3.00038 -4.88114 27.3587 0.00442829 0.00753541 -0.00347863 
225 1 3.1649 -5.15423 25.0187 -0.00609676 -0.0262438 -0.0159626 
219 1 2.60154 -4.57474 25.9399 0.0114846 0.0100634 0.0150089 
226 1 1.32295 -2.4651 29.33 -0.00507189 0.00382668 -0.0154873 
220 1 1.34687 -3.24876 28.0808 0.0228025 0.0139419 0.0161649 
218 1 1.2629 -2.60276 26.8596 -0.0071699 -0.00441015 0.0119784 
217 1 1.51745 -3.52443 25.7955 0.00721028 -0.00242728 0.0192313 
223 1 1.67975 -3.10813 24.3812 -0.00155235 -0.0213456 0.00875288 
224 1 0.773332 -1.24382 26.8484 0.00317706 0.0174842 0.0218183 
71 2 7.58783 -3.88451 28.4526 -0.0367137 0.0407304 0.065168 
504 2 7.71616 -3.13457 27.9833 0.0591025 -0.0466863 -0.0377829 
357 2 6.12593 -5.8833 28.7268 -0.00856553 0.0152883 -0.0970301 
240 1 4.2573 -5.656 30.0005 0.00750255 -0.00639948 0.00884175 
252 2 4.3946 -6.75567 30.4366 0.0415684 -0.0204767 -0.00384325 
103 2 9.75166 -5.94074 32.0758 -0.0169655 -0.0555526 0.00866289 
88 1 8.86905 -5.41323 32.38 -0.0065707 0.0159649 0.0145593 
239 1 1.85475 -2.79002 30.6291 0.0179346 0.0127494 -0.008735 
251 2 1.22712 -2.34971 31.5024 0.0297319 -0.0425919 -0.01857 
236 1 2.52702 -3.96594 30.6799 -0.00624577 -0.0122928 -0.0063471 
107 2 4.48722 -1.83717 32.756 0.0314402 0.021243 -0.0158212 
95 1 5.48101 -2.24461 33.356 0.0210371 0.0112031 0.037735 
96 1 3.69426 -2.42331 35.2835 0.0122676 -0.00901415 -0.00628292 
84 1 4.83944 -2.98106 34.6507 0.0022839 -0.0055359 0.00951486 
78 1 5.51654 -3.85769 35.3915 -0.00716161 0.0320165 -0.0104333 
106 2 3.82131 -1.24757 35.5156 -0.0115681 0.0612488 0.051019 
92 1 6.87768 -2.194 33.6863 -0.00483773 0.00496043 -0.0147463 
76 1 6.65091 -4.5281 34.9848 0.0111069 -0.006006 -0.00221779 
355 2 8.54942 -5.15052 35.394 0.0353899 0.0443964 0.0164727 
82 1 7.38878 -3.64492 33.9129 -0.0224903 -0.00180055 0.00344729 
91 1 8.07453 -4.61279 32.9498 0.0260307 0.0217023 -0.00141544 
104 2 7.68764 -1.35465 33.5494 -0.0549554 0.0433924 0.0405777 
248 2 9.42612 -6.22386 12.0234 0.0425328 -0.0529049 0.0798666 
259 1 -11.5624 34.2314 10.7925 -0.0101674 -0.00800723 -0.0142558 
380 1 -11.8514 23.7921 11.6541 0.00673504 -0.014739 0.0015917 
556 1 8.25565 30.7948 -10.5453 -0.0169886 -0.0329619 0.00112427 
568 2 7.47853 30.5291 -9.6438 -0.0184542 -0.0197962 0.0625252 
559 1 9.42419 31.6203 -10.4788 0.00513729 -0.00862324 0.00257674 
560 1 11.4354 32.5486 -11.032 0.00581098 0.00735255 0.00929 
571 2 9.57059 31.7173 -9.42014 0.00572133 -0.0158087 -0.00712806 
550 1 10.4461 31.6611 -11.5644 0.00642891 0.00310736 0.0245967 
532 2 -8.52913 27.6832 8.05991 0.0377976 0.0224038 0.00386728 
567 2 5.9497 30.0695 -11.8481 0.0945409 -0.0159468 -0.0663358 
563 1 10.7548 34.8524 -10.8894 -0.0164989 0.00280395 0.0144257 
267 1 -10.5617 32.0587 10.5055 -0.0154955 -0.0150204 0.00703515 
552 1 11.589 33.8278 -10.3496 0.00755022 0.00367495 0.00255601 
395 2 -10.7833 23.5353 11.7541 0.0411542 0.0563735 -0.00783646 
279 2 -10.3818 30.8833 10.4526 0.0165523 0.030452 -0.0755064 
265 1 -10.4445 33.3713 9.75091 -0.0153401 0.00898627 -0.017292 
277 2 -9.37324 33.104 9.42965 0.0445831 -0.047442 0.0175177 
555 1 8.28062 29.9855 -11.8068 0.0383447 -0.0174341 0.00236202 
391 2 -11.5937 21.462 10.3524 0.042618 0.0138374 -0.0231003 
260 1 -9.72324 31.9129 11.7151 -0.00828729 -0.00437849 -0.0128713 
177 2 9.97931 34.6473 -11.8405 -0.0755227 0.0186045 -0.0653899 
572 2 11.5191 34.1171 -9.24247 -0.0137708 -0.0164628 0.0904386 
548 1 6.82525 29.5503 -11.9953 0.00756874 -0.0236484 0.0072818 
546 1 11.3673 30.8355 34.2005 -0.00428333 0.0210296 -0.0134504 
256 1 -10.5769 32.9184 14.1074 0.00208598 -0.00237071 0.02173 
253 1 -11.5434 33.7171 12.1094 0.000778073 0.00697989 -0.0286342 
254 1 -10.5036 32.7551 12.5922 -0.0111483 -0.0119209 0.00327205 
542 1 9.22826 29.776 35.2492 0.0166329 0.00415878 -0.00901965 
268 1 -9.32675 30.7506 12.6871 -0.0193161 0.0208361 -0.0327461 
264 1 -11.1402 34.42 16.2246 -0.00681631 0.0066322 -0.0337311 
262 1 -9.59311 32.0686 14.4427 -0.0173122 -0.00591057 -0.00716932 
271 1 -9.34557 30.595 14.0913 0.0102815 -0.0159308 0.00965119 
280 2 -8.74466 29.9144 14.3971 0.0359731 -0.0406409 -0.0347431 
272 1 -9.54158 32.5236 15.9065 -0.0174903 0.015376 -0.0179763 
258 1 -11.163 33.9815 14.8884 -0.00415776 -0.018628 -0.0132171 
275 1 -9.99178 33.4803 16.7968 -0.0026017 0.0125095 0.0147094 
565 2 5.33458 28.0474 34.9618 0.00381319 0.0602471 -0.061862 
497 2 6.6251 12.4774 33.3078 0.0322167 -0.115696 0.00329574 
553 1 6.39141 28.4534 35.2064 0.00554798 0.00921175 -0.0239467 
544 1 10.2572 30.9445 35.1862 0.0270663 -0.0126115 -0.0049076 
561 1 11.4762 27.4146 32.4819 -0.00837116 0.00584521 -0.00936491 
573 2 11.8518 29.5888 31.9528 -0.0734559 -0.0252875 0.0519451 
549 1 10.3149 25.3682 33.4408 0.0107528 -0.00935228 0.00484229 
569 2 9.82754 28.4484 32.2914 -0.00313962 -0.097966 0.0198289 
554 1 8.85901 25.5669 33.6977 -0.00424218 0.0259235 -0.00906097 
547 1 7.66507 27.7447 34.5547 0.0174157 -0.0175757 0.00645421 
557 1 7.97929 26.4349 34.1357 -0.00188738 0.0095347 0.00856449 
545 1 11.153 29.587 33.5937 -0.0210426 -0.0067145 -0.00813749 
541 1 9.01442 28.7016 34.2938 -0.0172709 0.0240341 0.00748228 
543 1 9.77216 28.9384 33.3054 -0.0250885 0.00774852 -0.0120083 
558 1 11.5695 26.1659 33.2899 -0.00253467 0.00165041 0.0117397 
551 1 11.9559 28.6469 32.7113 0.00506316 -0.019304 -0.010514 
562 1 11.9478 33.0879 34.3585 0.01244 -0.0105 -0.0138238 
392 2 -11.7314 24.4393 13.4275 -0.0521348 0.0292863 0.00838002 
437 1 18.362 -1.02834 -6.55463 -0.00878194 -0.0100195 -0.0069366 
438 1 19.3234 -0.127375 -7.15769 0.000542579 -0.0207544 0.00782164 
444 1 20.7424 -0.485819 -6.6414 0.00443507 0.0141 0.0221145 
467 2 22.8794 -0.811796 -7.38279 -0.0372313 0.0126831 0.0136472 
456 1 20.5372 -1.54536 -5.57554 -0.00115263 0.00224544 0.00307225 
448 1 18.0191 2.12877 -9.97387 0.0115352 -0.00811826 -0.00280928 
457 2 15.5492 3.39569 -9.51608 0.0945389 0.0149213 -0.0716403 
440 1 16.914 1.63963 -9.36313 -0.00110523 -0.00358203 0.022515 
434 1 17.6877 0.697352 -8.40461 0.0155389 0.00460197 -0.00174522 
460 2 17.6866 3.35251 -9.96649 0.0146513 0.0555859 -0.00330143 
447 1 15.7347 2.44752 -9.10731 -0.000401005 0.000809853 -0.00300258 
445 1 15.0397 1.97024 -7.99045 0.011209 -0.0125277 0.0044623 
459 2 14.8912 2.67793 -7.23043 -0.00215998 0.0605028 0.0413005 
439 1 15.2408 0.430757 -7.72157 0.000123365 0.006 -0.0222698 
433 1 16.6085 0.13783 -7.51871 0.00171731 -0.000903854 -0.0124781 
455 1 21.9315 -0.236649 -7.34529 -0.0185363 0.0126765 -0.0135043 
452 1 21.3276 0.479595 -8.42234 0.00596195 -0.0401833 0.00227062 
436 1 18.9928 0.707888 -7.99191 -0.0135281 -0.00251419 -0.00952824 
463 2 20.0534 1.64869 -10.917 0.00598904 0.0508829 0.102673 
451 1 19.4643 1.60331 -9.9439 -0.0087657 0.0107752 -0.0159857 
442 1 19.9074 0.866767 -8.94858 0.0100801 -0.00498764 -0.00841981 
462 2 18.4931 -3.9927 -2.28622 -0.00747321 -0.0271594 0.060569 
450 1 18.428 -4.07182 -3.37913 0.0296943 0.00750867 0.00414465 
453 1 17.9458 -3.45888 -4.44354 0.0357087 0.0170908 0.0205653 
435 1 17.0828 -0.176739 -6.26674 0.00996507 -0.0290178 0.00437089 
441 1 16.0811 -0.617714 -5.24899 0.0119126 0.00520586 0.000436047 
454 1 19.1864 -2.15336 -5.98148 0.00337698 0.0069031 -0.0236917 
443 1 17.8797 -2.97691 -5.71616 1.00409e-05 0.0185873 -0.0155419 
465 2 16.8529 -3.00335 -5.93736 0.0485139 0.00959109 0.09866 
468 2 20.6769 -2.56539 -5.15884 -0.000442863 -0.12059 5.52425e-05 
446 1 14.2305 0.304984 -6.65171 0.0169941 -0.0296728 -0.0322671 
458 2 13.1158 0.576165 -7.24832 0.00743048 -0.0409584 0.0421014 
449 1 14.6541 -0.16136 -5.3827 -0.0282619 0.00542171 -0.0186659 
461 2 13.799 -0.594324 -4.93142 0.0293345 -0.0476036 -0.0153249 
359 2 20.1029 10.7898 4.73376 0.0316849 0.0223975 -0.042375 
347 1 20.5919 9.97034 5.26167 0.0234548 -0.00184754 0.0171095 
356 2 22.2422 9.7249 3.6931 -0.00547603 -0.0398267 -0.0351438 
344 1 21.9392 9.54982 4.74869 -0.00147778 0.017265 -0.00767901 
334 1 22.8544 8.87632 5.75147 0.0140701 0.00245864 -0.0125508 
343 1 24.145 8.26584 5.24412 -0.00611213 0.0125288 -0.00137818 
351 2 26.0184 6.60439 8.54349 0.0147167 -0.00660854 0.00712493 
348 1 18.9369 10.0565 7.37423 -0.00216486 -0.000278942 0.00863266 
336 1 20.2743 9.82503 6.70391 -0.00428636 -0.00609813 -0.00936714 
330 1 21.2375 9.52094 7.69573 0.0231869 0.00184696 -0.00776255 
325 1 22.8487 8.44029 9.40942 -0.00208286 -0.0100243 -0.0151117 
327 1 21.9628 9.30931 9.95763 0.00672426 -0.00728284 -0.00270941 
332 1 24.2145 7.73285 7.5165 0.0119751 -0.0245844 0.00224268 
326 1 22.859 8.02607 7.96794 0.0384489 -0.00983051 -0.000384798 
328 1 22.1795 8.7483 7.10563 -0.00978318 0.00293973 0.0180496 
340 1 25.027 8.47134 6.42914 0.00356513 0.0128101 -0.00119786 
329 1 20.8886 9.82755 9.04935 -0.00823581 0.00353397 0.0123151 
358 2 17.6821 10.0454 8.87654 -0.0384864 -0.0872702 -0.122991 
333 1 21.7832 9.48386 11.1578 -0.0291831 -0.0122859 0.0208476 
331 1 23.5311 7.71135 10.3618 0.0121602 0.00603221 -0.025142 
338 1 23.7909 8.37161 11.6807 0.0170874 -0.0236471 0.0221469 
335 1 19.8547 10.3847 9.392 -0.0012889 0.0046352 -0.00474097 
349 2 24.4319 5.52201 10.4764 0.00714467 -0.0475789 -0.0509407 
339 1 24.8181 6.89923 8.67017 -0.0101873 0.0155161 0.00924648 
337 1 24.1871 6.43268 9.83755 0.0145987 0.0064643 0.00675711 
346 1 18.596 10.2149 8.65736 -0.00486079 -0.00896414 -0.00174327 
360 2 18.0473 10.0741 6.67839 0.00393419 -0.0157199 0.0524108 
342 1 20.5068 10.1062 11.6384 -0.0187649 0.00930693 0.00635072 
345 1 19.8437 10.9096 10.8472 -0.0255236 -0.0476856 0.018854 
464 2 35.7377 11.6924 -11.547 0.00892256 0.102937 -0.0669324 
216 2 19.0029 11.4734 11.0702 -0.0291651 -0.0327272 0.0158917 
341 1 23.088 9.54645 11.994 -0.0123322 -0.0220957 -0.00364874 
353 2 22.9498 10.2097 12.7259 -0.00225689 -0.0381687 -0.0279886 
350 2 24.1797 7.72946 12.4197 0.0196991 0.00548952 -0.0596715 
354 2 20.1189 10.2703 12.6754 -0.0660421 0.0010465 0.00568666 
282 2 13.8001 21.1691 -4.20986 0.0315195 0.0789384 -0.1159 
144 2 16.641 21.2694 10.3577 -0.0625207 -0.0499373 -0.0994395 
352 2 27.5986 30.9417 1.83053 -0.0848622 0.054179 -0.0883088 
394 2 17.1839 21.6157 11.2893 0.110751 0.0317168 -0.0633935 
135 2 13.815 21.0171 -3.3399 0.0231038 -0.0163083 0.0293061 
574 2 28.2745 31.1806 1.12653 0.0969759 -0.100491 -0.0775565 
179 2 13.959 27.2227 -1.06326 0.0210408 -0.128259 0.0302962 
33 2 14.97 22.7833 11.6813 0.0709951 -0.0619992 0.0818271 
539 2 13.0671 27.1493 -1.27055 0.0288615 0.0165511 -0.00169402 
566 2 12.3901 25.4861 33.0269 -0.130326 0.0276771 0.0931525 
576 2 12.7522 33.706 33.8232 -0.0338863 0.00636758 -0.0481466 
188 1 28.7061 18.7617 29.4781 0.0261884 -0.0164313 -0.0125442 
204 1 25.3236 15.5206 26.8289 0.0127997 -0.0241873 0.0191198 
192 1 24.4023 17.5878 28.3086 0.0150918 -0.0164216 0.0224767 
212 2 24.2224 17.1272 29.1566 0.00806126 -0.00778718 0.105882 
196 1 29.0623 19.766 28.2851 0.00205877 0.0097327 0.00663103 
199 1 27.9067 20.2281 27.4928 -0.00585185 0.0187586 -0.025486 
211 2 28.4356 20.0551 26.6014 -0.0553509 0.0488513 0.00833753 
208 2 29.9508 20.3235 28.3298 0.0444024 0.0416913 -0.0364764 
202 1 24.787 16.5211 27.5046 -0.0225373 -0.012244 0.00163484 
190 1 26.5177 19.8458 27.8798 -0.00284439 -0.00348227 -0.0178166 
182 1 27.3543 18.7505 30.0557 0.00598331 0.00920412 0.0193271 
184 1 26.2168 19.5128 29.255 0.00734794 -0.00751311 0.0173249 
215 2 24.8195 19.6695 26.0621 0.0556258 -0.030228 0.0398134 
186 1 24.6847 19.5219 29.5028 -0.00232266 -0.00674009 0.0146576 
200 1 25.2233 19.9616 27.0815 0.0109165 0.00958065 0.0149987 
203 1 24.3739 19.0855 27.9799 -0.0098033 -0.00730485 -0.0263587 
195 1 29.7466 17.9496 30.3009 0.00103597 0.0133397 -0.0190078 
205 2 30.023 16.7321 31.948 0.134605 -0.0830374 -0.0140002 
193 1 29.2737 17.3449 31.5109 0.029085 -0.000513161 0.0200691 
206 2 27.9152 17.5849 34.4245 -0.0228814 0.014824 0.0186952 
207 2 30.4812 17.2509 29.7575 -0.0229085 0.00320171 0.0525325 
284 2 29.0854 15.6911 21.3844 -0.0101056 0.00127295 -0.0991656 
210 2 28.559 15.0882 21.7126 -0.0330971 -0.0108914 -0.142988 
213 2 24.3368 21.1917 29.7549 -0.0133114 0.0311734 -0.00502693 
214 2 25.5937 22.5056 31.3645 -0.0754577 0.0305068 0.0385984 
191 1 24.1065 20.9905 31.0818 -0.0014857 0.0262675 0.00291839 
201 1 25.0359 21.8354 31.7392 -0.0209584 -0.000900749 0.00779228 
198 1 25.5218 21.3205 33.1441 -0.0161732 0.013584 0.0102216 
133 2 24.9829 21.818 33.9751 0.0336526 -0.0546656 0.0618177 
185 1 24.5327 19.5801 30.9605 0.00291685 0.0196506 0.0117481 
209 2 27.4571 19.7576 34.7485 0.0089954 -0.0104743 0.00670227 
189 1 26.1137 19.8805 32.8586 0.0196656 -0.00549043 -0.00254815 
183 1 25.6961 19.041 31.7609 -0.00437789 -0.0208573 -0.00494358 
197 1 27.2101 19.3903 33.6725 -0.00706649 -0.0182184 -0.00763653 
181 1 27.1418 18.5031 31.3398 -0.0122926 0.0118313 -0.015377 
194 1 27.6272 18.0349 33.4561 0.0280776 0.00995309 0.0229457 
187 1 28.0124 17.9266 32.1483 -0.00703556 -0.0105106 -0.0258442 
287 2 15.2346 22.3248 12.359 -0.0862587 0.0414676 -0.0168804 
564 1 12.6215 31.7729 34.4975 -0.0430458 0.0159184 -0.012989 
421 2 13.5913 31.4078 34.5663 0.0442303 0.0877957 0.00198817 
98 2 48.4472 4.56824 -6.12366 -0.0247596 0.0471158 0.0233435 
131 1 58.1509 0.517789 9.9753 -0.0110451 -0.013874 -0.0134422 
399 1 59.5581 6.20727 -10.5733 0.00286188 0.0163268 -0.00811857 
120 1 59.4349 0.945805 9.43236 -0.0245449 0.0185901 0.0170023 
64 2 36.3192 11.6746 -11.5779 -0.0307562 0.0860876 0.0780003 
17 1 54.7662 10.8042 -9.47978 0.00350202 0.00520273 -0.0375544 
132 1 59.8523 1.24191 7.95101 -0.0107437 0.0152683 -0.0015803 
401 1 58.7591 7.09568 -10.1287 0.00920454 0.0170016 -0.0121566 
398 1 54.9076 10.054 -10.6994 -0.0146408 -0.00825206 -0.0158511 
402 1 57.772 7.85224 -10.5242 0.0148632 0.00237725 0.00564635 
400 1 56.898 8.76405 -10.4023 0.0100469 0.0126599 0.00124547 
425 2 54.1875 10.1814 -8.7477 -0.0555068 -0.0696484 -0.056453 
415 1 55.5615 8.85451 -11.1008 0.014292 0.023882 -0.000369003 
426 2 57.3383 9.19083 -9.44974 0.0651583 -0.0321323 -0.0838894 
34 2 49.6854 -7.96519 8.04835 -0.0085952 -0.0334515 0.0608305 
314 2 59.0248 -2.21363 0.490923 0.045759 0.0378939 -0.036867 
15 1 49.7137 1.87313 5.46173 -0.000134241 -0.00152118 0.036197 
27 2 51.6653 2.51955 4.97784 0.0522933 0.00389245 0.055359 
8 1 51.017 2.01038 5.70296 0.013126 -0.0215996 -0.00781729 
7 1 51.3871 0.790612 6.36067 -0.00527323 0.0132307 0.0060463 
25 2 48.3098 3.2058 3.98227 0.0258289 -0.00395132 -0.0419347 
13 1 48.7613 2.62164 4.86082 -0.00401424 0.0168951 0.0263695 
21 1 51.8063 -6.28026 6.99569 -0.013687 -0.00795852 0.00799944 
30 2 52.116 -7.12958 6.45878 -0.0144871 0.0488988 0.0530349 
22 1 49.3176 -6.73266 7.80859 -0.00264752 -0.00935346 0.0225092 
24 1 48.2387 -6.1478 8.68072 0.00234493 -0.00737281 -0.000246807 
36 2 47.2152 -6.6312 8.86235 -0.0506615 -0.0310662 -0.010865 
31 2 47.9503 0.431969 9.36433 0.0557604 0.0191524 0.0275434 
32 2 46.7998 -1.91971 10.158 -0.0534082 -0.0200905 -0.0147468 
35 2 46.7285 -3.89907 8.11738 -0.00433269 -0.0580162 -0.107203 
18 1 52.8701 -5.17105 6.80787 -0.0142183 0.0244664 0.00227422 
11 1 50.4479 -5.77991 7.18534 -0.0182876 0.0147855 -0.000771332 
20 1 47.6031 -2.37919 9.45781 -0.0245783 -0.0101054 -0.00498365 
3 1 52.0967 -2.38296 6.72262 -0.00355669 0.0035081 -0.00590572 
9 1 52.0688 -3.8754 7.19208 0.00404054 0.0252368 -0.0192531 
1 1 50.6824 -0.334307 7.13087 0.0250696 0.0124275 -0.00943853 
2 1 50.909 -1.58549 7.48658 -0.0163604 0.032365 0.00486503 
19 1 48.6456 -0.380432 8.73552 -0.00643136 -0.0232034 0.0175452 
10 1 48.3075 -1.76954 8.56032 -0.0014495 0.0187376 -0.0127925 
16 1 49.2749 0.241996 7.64862 0.00944663 0.00497833 0.0151768 
5 1 50.7104 -4.33705 7.69576 0.00648267 -0.00466911 0.00523898 
12 1 48.308 -4.56377 8.62452 -0.0021372 0.0393146 0.0198306 
6 1 49.5258 -3.68902 7.96462 -0.0134648 -0.00896125 0.0037315 
23 1 47.115 -3.68422 9.00227 -0.000190848 0.00882841 -0.00091715 
4 1 49.7222 -2.39586 7.92063 -0.0174323 -0.0286879 0.00562092 
140 2 56.8764 -0.0456059 11.9144 -0.0617204 -0.0166643 -0.0395589 
142 2 59.2193 1.69278 7.17516 -0.0376072 0.117678 0.0862584 
143 2 57.547 -0.0801183 9.38733 -0.060419 -0.112903 0.0411719 
26 2 53.6351 -5.13417 5.98386 0.0842227 0.0580745 -0.0926638 
28 2 49.4342 1.30298 7.2302 0.105213 -0.0226769 -0.0102146 
128 1 57.6284 0.21401 11.1926 -0.036234 0.0189465 0.0209186 
112 1 59.9513 1.16262 11.9842 0.00890827 -0.0179882 0.014148 
496 2 58.2423 0.446963 15.2993 -0.0731367 0.0104143 0.0823461 
127 1 57.6069 0.901629 13.4027 -0.0252956 -0.0157852 0.00453997 
124 1 58.8251 1.1403 14.2618 -0.00835652 -0.00661377 -0.0088636 
518 1 50.5474 2.76142 22.8497 -0.0136045 0.0037338 0.00562779 
521 1 50.2212 3.0025 21.6649 -0.0149387 0.00150938 -0.00301986 
530 2 49.9626 2.2041 20.6471 0.0423289 -0.0323013 0.0118751 
507 1 49.8833 5.3213 23.8197 0.00119122 0.00617758 -0.0234283 
513 1 50.2626 4.49583 21.39 0.00799979 0.0123777 0.0015101 
522 1 49.947 5.38502 22.4264 -0.00415158 -0.0289171 0.0541447 
533 2 50.5852 4.80655 20.3802 -0.090625 0.00609737 -0.057589 
525 1 49.6926 6.86934 22.3717 0.00936786 -0.0173455 -0.00896644 
515 1 49.5618 7.59059 23.6017 0.0100808 -0.00180259 3.44113e-05 
534 2 49.8829 7.37255 21.4068 -0.045662 0.0135647 -0.0858987 
538 2 49.9851 9.65447 23.7648 0.0255519 0.00658061 -0.00902531 
511 1 50.7385 3.08964 24.0341 -0.00958193 0.00976522 0.00560783 
529 2 50.5952 0.968416 25.4007 0.0095103 0.0768867 0.0837824 
531 2 51.8969 1.57237 26.9716 0.0219113 0.0487671 0.0688138 
535 2 51.248 3.37724 29.4924 0.0341079 0.0287643 -0.0921388 
520 1 50.8686 3.92164 28.524 -0.00198866 0.00711775 0.0245387 
517 1 51.0578 1.99895 25.2314 0.0324297 0.0239266 -0.000741452 
519 1 51.657 2.55516 26.4182 0.00752307 0.00825995 -0.00335523 
512 1 51.0768 3.7877 26.9781 0.00866542 -0.0158076 0.00117767 
506 1 50.2304 4.40077 26.1329 0.0281688 0.00335808 -0.0201861 
523 1 49.9228 4.68994 29.1177 0.0159479 -0.00526898 0.0130024 
514 1 48.9785 5.47999 28.0191 0.00560475 -0.0140159 0.0189491 
505 1 50.3576 4.37188 24.5555 0.0288751 0.00240315 -0.00374383 
508 1 49.3346 5.36216 26.6783 -0.00185663 -0.00191279 -0.00186833 
510 1 49.343 6.69975 26.0388 0.0107583 -0.0183699 -0.0107698 
509 1 49.6067 6.55692 24.5108 0.0285059 0.0257173 0.00146749 
524 1 48.3524 6.54069 28.4542 -0.00103334 -0.00684245 0.00443747 
536 2 47.4545 8.7339 28.364 0.0757903 0.00658759 0.0168082 
527 1 48.0319 7.73177 27.8909 -0.0344842 0.0124015 -0.00292191 
516 1 48.7199 7.96121 26.401 -0.0162611 0.00356241 -0.00178799 
528 1 49.1597 9.04923 25.6281 -0.00098214 0.00496715 -0.00343908 
526 1 49.6199 8.99513 24.3325 0.00585028 0.0286602 -0.00691645 
466 2 47.9606 0.582596 12.0884 -0.0921834 0.0176368 0.00165044 
416 1 56.3608 7.6171 34.7643 0.0140266 0.0176189 -0.000571513 
431 2 56.978 5.9041 35.4755 0.0455623 0.0289611 0.0268997 
406 1 55.8068 8.82732 35.3682 0.000448449 0.00460708 -0.00312074 
419 1 56.7831 6.6298 34.3801 0.0162661 -0.0176148 0.0109513 
428 2 57.3077 6.47501 33.3737 -7.82971e-05 -0.0741596 0.0353471 
424 2 55.495 10.1537 33.7525 -0.0492052 0.00784016 -0.137442 
412 1 55.5358 10.0976 34.9007 0.0165331 -0.00528197 0.0107692 
418 1 59.8423 2.68127 32.5265 -0.00441954 0.0075183 -0.0169208 
430 2 59.3708 -0.0274754 30.5707 0.08373 0.016161 -0.0900436 
118 1 58.6014 0.799091 12.1571 -0.0150965 -0.0126077 0.0111287 
105 2 47.7857 0.433063 12.7995 0.0542701 0.0256867 0.0186013 
404 1 55.2412 10.8973 35.9303 -0.01023 -0.0519545 -0.013078 
410 1 54.9048 12.9665 -6.69236 0.0381472 -0.0189857 0.0151917 
29 2 55.8476 14.8473 -7.33404 -0.0864337 0.00730433 -0.00413117 
423 2 54.3598 14.0334 -11.2205 0.12484 -0.0124176 -0.065069 
403 1 55.3341 13.3011 -9.08532 0.0114641 0.0106185 -0.00785118 
413 1 55.5727 13.6382 -7.75705 -0.0102554 0.00686182 0.0182985 
397 1 54.8555 12.2557 -9.77653 -0.0156466 -0.0159798 0.00780818 
409 1 54.545 13.0307 -11.2465 0.0197107 -0.0171063 0.0102417 
422 2 55.4019 12.2306 -4.7413 0.00709249 0.00579852 -0.0221387 
14 1 54.539 12.3397 -5.49115 0.000398192 -0.00850366 -0.00189864 
570 2 44.891 22.5053 -11.8877 -0.0467683 0.160551 -0.00126338 
385 2 44.0722 22.5782 -11.797 -0.0479838 0.0444256 0.0481266 
43 1 44.0177 22.8574 18.3768 -0.0171695 -0.0235205 0.0287999 
37 1 45.3141 22.4188 17.5193 0.0102127 0.013461 0.018536 
38 1 45.4521 23.2035 16.46 0.0110667 -0.00298314 -0.00448727 
42 1 47.8114 23.1904 16.2791 0.0140156 0.0471426 0.00732035 
49 1 43.0823 23.2407 17.319 -0.00574282 0.0262891 0.0103551 
61 2 42.0882 23.2054 17.5357 0.0535232 0.0596481 -0.0239594 
44 1 44.0946 23.6974 16.139 0.0161724 0.0197472 -0.00707412 
41 1 47.8209 22.2501 17.3591 0.00181104 -0.00714779 -0.00525757 
54 1 50.3421 22.4404 17.5502 -0.000942683 -0.00578665 -0.00249546 
60 1 50.2417 23.7206 17.019 -0.0110453 -0.00715235 0.0156815 
70 2 50.9269 24.571 16.9726 -0.061355 0.0430783 0.0303444 
69 2 50.8882 21.9176 18.3988 -0.0556594 -0.0419854 -0.0307763 
48 1 49.2354 23.6415 15.9544 -0.0115117 -0.00961226 0.0209934 
51 1 44.2951 24.7005 15.2998 -0.0347686 -0.0176464 0.0125293 
40 1 46.7238 23.9612 15.8829 -0.0124644 -0.00604352 -0.0261815 
52 1 44.5798 25.7165 14.4626 0.00515984 -0.0259098 -0.00312037 
55 1 46.0369 25.9632 14.9432 0.0458571 -6.41536e-05 -0.0229173 
63 2 43.8918 26.2538 13.9152 0.0271393 0.0447808 0.0199431 
46 1 47.0383 25.2314 15.3006 -0.0226364 0.013303 -0.0303762 
67 2 46.5071 26.889 14.5738 0.028966 -0.0321126 0.0335156 
68 2 48.5836 26.4084 13.7712 0.0147552 0.00192652 -0.0551139 
59 1 48.3921 25.6676 14.7846 -0.0207225 0.000233174 -0.00178982 
72 2 50.2392 25.3038 14.1582 -0.0197377 0.00292138 0.0305989 
56 1 49.4009 24.786 15.058 0.017919 0.0187635 -0.00443852 
62 2 42.665 20.4838 20.3309 0.00127564 -0.093828 0.00610675 
39 1 46.6382 22.0376 18.1479 -0.0122321 0.0073609 0.00484919 
53 1 43.3265 21.3944 20.1984 0.024618 -0.0120588 0.00874637 
50 1 43.7171 22.1679 19.6504 0.00523374 -0.00117551 -0.00573475 
45 1 47.1431 21.8125 19.4164 -0.000373453 -0.028018 0.00590597 
65 2 46.8546 21.7434 20.567 -0.0101245 0.0412778 -0.0373267 
58 1 49.0071 22.1733 18.0028 -0.00733808 -0.0156648 0.0365728 
57 1 48.398 21.9072 19.3508 -0.00682402 -0.00945226 -0.00789041 
66 2 48.2093 20.3253 20.7381 0.0295671 0.0554604 0.0882 
47 1 48.9243 21.0953 20.414 0.00143003 0.00201669 -0.00707012 
278 2 54.7785 15.1577 28.4235 -0.0619383 -0.0133091 -0.0455256 
427 2 54.8741 12.5866 34.8286 -0.0109247 -0.0841566 0.0806156 
411 1 54.5621 12.1838 35.7079 -0.00169223 0.00454705 -0.0262596 
283 2 53.9308 15.5052 28.3478 -0.0900064 -0.0404038 -0.010888 
537 2 69.5398 7.71868 -8.82942 0.013425 0.0290385 0.0145533 
540 2 69.3243 6.96352 -8.92288 0.0489878 -0.0237572 -0.0523936 
498 2 70.3092 -9.55849 10.074 -0.03933 0.0729007 -0.0146249 
485 1 70.9291 -10.2059 10.5131 -0.00546005 -0.00229627 -0.0055535 
125 1 64.8365 3.10315 11.6848 0.0117163 -0.00185711 0.000435991 
250 2 61.2628 5.37265 -10.5934 -0.0240389 -0.0489732 -0.0287696 
407 1 60.3629 5.27937 -11.1459 0.00145369 0.00695113 0.00420192 
108 2 71.2121 -8.5608 11.8269 0.00507342 0.00572428 0.0434909 
482 1 71.6356 -9.49983 11.5317 -0.0241722 -0.00666112 0.00952607 
137 2 65.8208 2.93358 11.0719 -0.0236507 0.0835838 0.035244 
501 2 68.6758 -11.3563 9.61959 0.0346561 0.0435849 0.0459078 
138 2 65.2674 2.2824 8.93239 0.0927449 0.0415296 -0.078338 
477 1 70.2371 -11.3707 11.2131 0.0148367 0.013553 0.0259262 
114 1 60.4405 1.09588 10.4235 -0.0132241 -0.00892935 -0.0111615 
111 1 62.7171 1.75403 11.0816 -0.00764898 0.00766756 0.0126812 
117 1 63.7524 2.62147 10.5953 -0.0134713 0.00177359 0.0121854 
130 1 61.1011 1.47787 7.89632 -0.00277828 -0.0243488 -0.0123603 
113 1 61.5881 1.57191 10.2794 -0.00959021 0.0194728 -0.015284 
119 1 62.0731 1.1321 8.76372 0.00659085 0.00827631 -0.00938503 
129 1 63.4389 1.39969 8.45468 -0.0183413 -0.00617959 0.0115689 
141 2 63.977 1.05421 7.51574 -0.0608296 -0.0356399 0.0648432 
126 1 64.2427 2.41576 9.34202 -0.00385417 -0.000173749 -0.020817 
475 1 72.6913 -10.5461 11.8223 -0.00568108 0.00661184 -0.0211486 
488 1 69.2825 -11.8653 10.2439 -0.0261117 0.0129115 -0.0133889 
174 2 76.917 -11.5232 14.9371 0.0908199 -0.0392708 0.0689939 
414 1 60.4032 4.34105 34.2932 0.0202139 -0.0114485 -0.0231253 
273 1 82.4992 -10.9773 14.5646 0.0128168 0.00913664 -0.00944089 
405 1 60.3006 3.38518 33.5758 0.0085919 0.00582546 0.00909672 
136 2 61.0314 -0.291707 31.0367 0.0494409 -0.0987824 0.0391937 
286 2 82.4002 -11.5985 17.2104 0.0181354 -0.0695789 -0.0457273 
429 2 60.217 6.06537 34.4516 -0.105826 0.028643 0.00471628 
173 2 78.2938 -11.2422 17.4865 0.022814 0.000207725 0.0467838 
116 1 60.2541 1.66951 14.1343 -0.0258188 -0.00532829 -0.026121 
123 1 61.5154 1.82753 14.9176 -0.0303627 0.0357658 -0.0175048 
110 1 61.0276 1.63636 12.8272 0.00888485 -0.00130154 -0.0103047 
121 1 62.9588 1.83274 14.5697 0.0356069 0.0176714 -0.000455612 
115 1 63.2561 2.2847 13.2525 -0.025441 0.000827046 0.00427028 
109 1 62.3704 1.42898 12.3481 0.00976505 -0.0150316 -0.0157658 
139 2 63.5625 1.38396 15.1625 0.0176592 0.0402699 -0.0631148 
122 1 64.3708 3.31484 12.926 -0.00771899 -0.00353721 -0.0225659 
274 1 83.3052 -11.9087 16.6301 0.00382227 -0.0149181 -0.0179742 
134 2 64.95 2.92593 13.6485 0.11307 -0.032259 0.0756879 
575 2 81.268 -10.417 14.8722 0.0997815 -0.0170805 0.0159108 
99 2 72.5285 -9.59129 18.5513 0.110802 0.0534812 -0.0291112 
85 1 72.0073 -10.3912 18.8449 0.0153555 -0.0291192 -0.0127775 
80 1 72.1881 -11.0416 21.639 -0.0385308 0.0171308 -0.0141638 
417 1 60.6255 5.24698 35.4714 0.00223869 0.025251 0.0237293 
87 1 71.7759 -10.8589 20.1317 0.0158869 0.00937271 -0.0338501 
408 1 60.032 1.26124 31.836 -0.0158345 0.0344301 -0.0031892 
420 1 60.1456 0.143892 31.2758 -0.0142219 0.0143173 -0.00335002 
493 2 75.3373 -11.3158 13.6536 0.0195058 -0.107709 -0.0144118 
285 2 80.9658 -11.0884 12.9902 0.0740594 -0.0216095 0.0706355 
100 2 73.2111 -11.3014 21.5564 -0.0835418 0.0208741 -0.000127803 
270 1 81.7992 -11.5883 13.4302 0.00532316 -0.0035189 -0.0112721 
494 2 73.7475 -9.91881 12.0665 0.027029 -0.00841398 0.0693664 
365 1 79.8626 24.9703 11.863 0.00546411 0.00744738 -0.00206096 
378 1 77.2027 25.5028 11.7669 -0.00477124 -0.0131403 0.00450842 
374 1 76.8337 21.8972 10.3619 -0.0122903 -0.0174052 -0.00828056 
386 2 76.3218 20.6604 10.4744 0.0261097 0.0116316 0.0198317 
377 1 76.5282 23.2359 11.0561 -0.0145708 0.029651 -0.0204987 
495 2 76.1165 25.5213 11.6113 -0.0305627 -0.0915708 0.0151043 
387 2 78.6052 20.1177 8.79429 -0.072359 -0.0693465 -0.0752401 
367 1 78.3295 21.5944 10.3301 0.0102819 -0.0200401 -0.0154713 
373 1 78.8884 20.2833 9.69433 -0.0183852 0.00462622 0.0114856 
388 2 79.6708 18.9502 10.8337 0.0295501 0.103943 -0.0491505 
375 1 79.866 19.8166 10.5174 -0.0136246 0.00634235 -0.0151318 
368 1 81.0093 20.9522 10.5863 0.0126896 0.00048634 -0.00601899 
362 1 80.8387 22.4175 10.7377 0.010945 0.0453305 -0.00373153 
376 1 82.416 20.9637 10.7541 -0.00207806 0.0408685 -0.00651905 
379 1 83.6023 21.4963 11.0804 0.00252301 0.0157083 -0.00750121 
361 1 79.4271 22.6443 10.8464 -0.0233336 0.0271887 -0.00405643 
363 1 78.9927 23.8261 11.4385 0.0128774 -0.00365107 0.0215522 
469 1 72.8678 35.9824 11.7924 0.00674843 0.0128793 0.0109769 
369 1 77.5969 24.1874 11.0391 -0.0142003 -0.0077377 -0.0361437 
471 1 71.32 35.7305 11.6909 0.000598406 0.00835076 0.0245471 
269 1 82.6085 35.7043 11.0971 0.00492077 -0.00276508 0.0299382 
491 1 68.5678 35.2635 11.1205 -0.0134631 0.0063696 0.000154899 
389 2 75.7228 23.3655 11.5793 -0.000532305 0.0154757 0.0213672 