ITEM: TIMESTEP
710000
ITEM: NUMBER OF ATOMS
576
ITEM: BOX BOUNDS pp pp pp
-1.2000000000000000e+01 8.4000000000000000e+01
-1.2000000000000000e+01 3.6000000000000000e+01
-1.2000000000000000e+01 3.6000000000000000e+01
ITEM: ATOMS id type x y z vx vy vz 
288 2 10.4228 11.7357 -4.14943 0.0839666 0.0332 -0.0107752 
99 2 -4.51648 -9.14164 5.4769 0.101605 -0.0850366 -0.0142701 
85 1 -4.79497 -9.17755 6.55296 0.00925908 -0.000409801 0.0141706 
80 1 -4.681 -7.81442 9.05709 -0.017482 -0.000623973 0.0283273 
100 2 -4.54929 -6.96958 8.71221 -0.0255844 -0.110434 -0.0464556 
87 1 -4.90937 -8.75773 7.9169 0.013527 -0.0136806 -0.00289051 
573 2 11.5334 -8.40964 8.31645 -0.0445027 -0.0415283 0.0244504 
540 2 -0.866038 -8.6628 26.375 -0.0577939 -0.00487345 0.0579151 
537 2 0.0268501 -8.86912 26.0926 -0.0174613 0.0633686 -0.00528157 
105 2 -5.79951 -0.386776 12.6598 -0.0044143 -0.0795309 -0.11872 
466 2 -6.80336 0.0678359 12.5148 -0.0747959 -0.0680419 0.127694 
319 2 -11.7782 -7.6453 24.952 -0.148202 0.0673872 0.00715496 
286 2 10.3211 12.7436 -6.38109 -0.0518948 0.066119 -0.0157176 
273 1 11.4482 15.3284 -6.79677 -0.00358737 -0.0129935 0.00423161 
263 1 11.0317 14.5242 -5.6806 -0.00178965 0.00900534 0.0123869 
270 1 11.8391 16.6226 -7.11146 0.00262357 -0.00543364 0.00582268 
275 1 10.4914 12.8675 -1.48481 -0.00773618 0.0112804 -0.0141929 
285 2 11.3874 16.8639 -8.20439 -0.0477193 -0.0702706 -0.063033 
257 1 11.4277 15.3413 -4.45211 -0.0369575 0.0141248 0.00222041 
276 1 10.6867 12.8045 -4.05085 -0.016619 0.0212367 -0.00282137 
274 1 10.4164 13.2542 -5.44139 -0.00336506 0.0153282 -0.0185644 
256 1 11.8767 15.4463 -2.11797 0.00477059 0.00401096 0.0153973 
284 2 -2.9173 15.2616 9.05129 0.0674841 -0.00472635 0.0820188 
267 1 11.396 19.3371 -1.44796 0.0176736 0.00631699 -0.0263487 
264 1 10.7298 13.5119 -2.90679 0.00468645 0.00152902 0.00526296 
258 1 11.3852 14.7625 -3.25062 0.00531087 -0.00490181 0.00343394 
287 2 11.316 12.926 0.510639 -0.00449326 0.0149932 0.0405874 
255 1 11.8249 16.7568 -4.62994 -0.0155596 -0.0199528 0.00674562 
260 1 11.7296 17.9514 -1.23461 0.00831492 0.00553286 -0.000454695 
144 2 2.7576 35.0965 -3.8273 -0.027148 0.0713755 0.127343 
394 2 2.73675 34.5573 -4.31541 0.00330013 -0.0218286 -0.110847 
210 2 -3.93914 15.4986 9.51368 0.0602109 -0.0351374 -0.0314519 
574 2 6.32025 20.9307 11.2628 0.0349364 -0.0716475 -0.0915713 
272 1 11.2878 13.4924 -0.501993 -0.00259657 0.00289882 0.00312384 
279 2 11.0491 19.9525 -0.589684 -0.0331497 0.0129972 0.026624 
268 1 11.8214 17.1797 0.0282186 0.0120569 0.0297506 -0.0049676 
262 1 11.7159 14.8925 -0.797957 -0.00645602 0.0106761 -0.0212632 
261 1 11.8593 17.561 -5.86589 0.0141175 0.000446706 0.00264589 
253 1 11.8024 17.5556 -3.41808 8.06429e-05 -0.00243207 -0.0257397 
352 2 5.90359 21.2073 10.572 0.0423657 0.0356161 -0.0385879 
406 1 -4.89041 17.2455 18.3681 -0.0192252 0.0157629 0.0258703 
415 1 -4.40788 17.5844 17.0148 -0.0164057 0.00932279 0.0165575 
424 2 -3.53815 15.7313 16.0327 0.0282474 -0.0410323 -0.00765453 
412 1 -3.38268 16.9394 16.2244 -0.0144607 0.00775509 -0.00843625 
427 2 -0.461816 16.2648 15.4846 -0.0528764 -0.0365108 0.0117776 
404 1 -2.05709 17.6134 16.4952 -0.0100103 0.00188697 -0.00767492 
398 1 -2.26552 18.7727 17.0929 -0.00791213 -0.00955353 -0.000695082 
403 1 0.0539495 19.456 16.8397 0.0157142 -0.0286441 0.0340446 
400 1 -3.78849 19.0066 16.9456 0.0273205 0.0330342 0.00394998 
397 1 -1.28879 19.624 17.6865 0.0192878 -0.011345 -0.0120787 
401 1 -3.69911 21.16 16.1913 0.0344337 -0.0136512 -0.0231375 
402 1 -4.1889 20.0731 16.1391 0.00962283 -0.00732687 0.0186261 
407 1 -3.57672 23.5543 15.0622 -0.0138933 -0.00210224 -0.0292137 
399 1 -3.52345 22.6196 16.1257 -0.00726996 -0.00544286 -0.0248951 
410 1 0.911058 20.306 16.5362 -0.0115169 -0.0281946 -0.0018989 
411 1 -0.91453 17.1193 16.0605 -0.028109 -0.0336924 0.0165559 
409 1 0.20587 18.0666 16.0755 0.00870241 -0.0247027 -0.0148549 
423 2 0.8353 18.1184 15.266 -0.0677649 -0.0647378 -0.0425753 
413 1 1.58203 21.3475 16.4887 0.00768882 -0.0288676 0.00622872 
335 1 5.02728 23.1798 18.9679 -0.0144702 0.00643814 -0.0038883 
346 1 4.81096 24.5449 18.7409 -0.0198203 0.010435 -0.00136333 
334 1 9.94946 24.474 17.9288 -0.0324166 0.0256395 0.0159024 
343 1 11.4156 24.6906 18.8044 -0.0140539 -0.0104332 0.0218157 
340 1 11.4507 23.4084 19.2883 -0.00176596 0.0038831 0.0329267 
429 2 -3.84425 25.1731 13.5405 0.0259795 -0.0237834 -0.0146804 
417 1 -3.85172 23.9574 13.6344 0.0125372 -0.0224719 -0.0416356 
422 2 2.3795 21.4631 15.8764 -0.000285685 -0.0194667 -0.0829704 
360 2 5.1877 26.3136 18.3552 0.0182268 -0.0856628 0.0466617 
348 1 5.75939 25.3143 18.392 0.0251485 -0.0197665 -0.0289898 
344 1 9.27357 25.4172 17.1471 -0.0113863 0.0177376 0.0109432 
356 2 10.1695 26.1909 16.9739 -0.0366722 -0.0111304 -0.00869573 
359 2 8.05013 26.5794 16.2708 0.0751971 0.0383457 0.0553395 
347 1 8.02233 25.9107 16.9547 0.0052178 0.0193386 -0.0027662 
336 1 7.12938 25.1124 17.8363 0.0291537 -0.00381628 5.36013e-05 
428 2 -7.45129 17.4762 20.7227 -0.0384992 -0.00612102 0.0228328 
416 1 -5.61603 17.7274 19.2947 -0.0077199 0.00843462 -0.0231588 
419 1 -6.4043 18.0143 20.2098 -0.0230822 0.00809661 0.000859775 
431 2 -6.06042 19.0029 20.5232 -0.0603293 -0.0831544 -0.0851385 
426 2 -4.9679 22.7362 18.1927 -0.117822 -0.0391581 0.00512291 
414 1 -3.31238 23.7817 18.4771 0.0244399 0.0375093 -0.0285259 
405 1 -3.93635 23.0924 17.5326 -0.00215125 -0.0188629 0.0283929 
29 2 -1.34827 20.3075 21.0578 0.031332 0.0493189 -0.0612826 
17 1 -1.38153 20.1363 18.9885 -0.00289255 0.0200606 0.00209867 
408 1 -3.3625 24.3606 19.7294 -0.00124334 -0.000854907 0.00965737 
14 1 -1.98508 20.6483 20.0982 0.00134812 0.0087544 -0.000741293 
432 2 -2.71103 24.8757 19.8637 0.0520033 0.0771778 0.00877907 
136 2 -5.42623 24.7844 22.5368 -0.00550896 -0.0272291 0.0444693 
420 1 -5.19508 23.9778 21.7826 -0.00161545 0.0137223 -0.00117183 
425 2 0.974247 21.9357 17.1734 0.0098251 0.0667145 -0.0184506 
216 2 3.06682 21.7659 18.9277 0.0727004 0.0633587 0.00522062 
354 2 4.13104 20.0764 20.3658 -0.0177556 0.00317365 -0.0432037 
342 1 4.66038 21.0677 19.9147 0.00705456 -0.0168806 -0.0504575 
345 1 4.05532 22.0496 19.1911 -0.0102262 -0.0108267 -0.00302858 
353 2 5.82148 18.8964 20.9071 0.0953916 0.00289278 -0.0339451 
338 1 7.8338 19.0476 20.6076 -0.0104126 0.00987915 0.0127198 
337 1 10.4213 19.717 20.5102 0.00101506 -0.00832962 -0.0113954 
331 1 8.93256 19.9867 20.3893 0.0116735 0.00345109 0.0009655 
349 2 11.0018 18.8486 20.8161 -0.0275579 0.023131 0.0165414 
325 1 8.46994 21.1803 19.6281 0.0133116 -0.00776365 0.00504996 
339 1 11.142 20.6257 19.7749 -0.00368839 -0.00223459 -0.0177793 
327 1 7.12144 21.525 19.3083 0.00193689 0.000291341 -0.0163627 
332 1 10.5868 22.0148 19.421 0.0135269 -0.00536227 0.004013 
326 1 9.32481 22.147 19.0943 0.0124413 -0.0161065 -0.00726773 
328 1 8.927 23.4367 18.4443 -0.0283684 0.00371299 0.0175113 
330 1 7.46751 23.7375 18.4638 0.0146952 -0.00453128 0.00942936 
341 1 6.60355 19.4574 20.4533 0.0101158 -0.0116206 -0.00915142 
350 2 8.20428 17.9873 20.7874 -0.0242759 -0.0480092 0.00409705 
329 1 6.39391 22.7802 18.9756 -0.00655149 -0.00150822 0.00752903 
333 1 6.02434 20.7543 19.7786 0.00648723 0.00132853 -0.0258134 
418 1 -4.4113 24.1112 20.7574 -0.010013 -0.00753205 -0.01511 
430 2 -5.88638 23.335 21.392 0.0427553 -0.0213218 -0.0815358 
358 2 3.82106 24.9349 19.1647 0.0555347 0.0279384 0.0101628 
243 2 21.876 -5.12017 -9.41953 -0.0758778 0.0386418 -0.0729635 
244 2 20.9245 -4.86854 -6.9684 -0.0326232 0.0544903 -0.0186964 
231 1 22.7511 -5.19402 -8.76221 0.0103805 0.005996 0.00751115 
223 1 25.0431 -5.82211 -8.6885 -0.0456221 0.00498351 0.00755893 
229 1 23.7192 -5.61643 -9.55213 -0.0149365 0.0177597 -0.00722856 
241 2 23.2695 -5.89421 -10.4076 0.0209452 0.0305178 0.0305523 
230 1 26.0418 -6.27208 -9.62409 -0.0110798 0.00913111 0.00767894 
242 2 25.6109 -6.49982 -10.7922 0.0410995 0.0339509 0.0435372 
245 2 28.3832 -5.92292 -9.7043 -0.0217233 0.0616239 0.0215703 
246 2 30.3603 -5.02617 -8.11136 -0.0117397 0.0277683 0.0351546 
232 1 21.7073 -4.35828 -6.5786 -0.000586097 -0.00782501 0.0350232 
224 1 22.8643 -4.52934 -7.35922 -0.0117592 0.0196912 0.0181726 
218 1 24.3056 -4.65334 -6.90304 0.0314593 0.00543368 -0.0193464 
217 1 25.4185 -5.4991 -7.37545 -0.0124224 -0.00274183 -0.0155354 
219 1 26.9364 -5.37505 -7.13617 -0.0213997 -0.00977306 0.0064964 
233 1 27.3322 -6.18984 -9.22401 -0.023117 0.0185526 0.0198335 
234 1 29.2511 -4.82903 -7.70405 0.0107604 -0.0120348 0.0114868 
225 1 28.1013 -5.7998 -7.84528 0.00427728 0.00145521 -0.00691276 
421 2 13.4179 -4.96735 7.7148 0.00578308 -0.0116832 -0.0421637 
237 1 29.3726 -4.2376 -6.38444 -0.0269841 0.0383929 -0.0397356 
249 2 30.2414 -3.64318 -6.28896 0.0654543 0.0756406 -0.00407893 
247 2 21.5309 -3.98178 -4.26107 -0.0853601 0.0872393 -0.0136677 
235 1 22.1326 -4.54097 -5.00547 -0.0047817 -0.000590704 -0.0100911 
226 1 23.504 -4.66516 -4.58305 -0.00204313 0.00560547 -0.00124079 
239 1 23.5711 -4.73292 -3.03813 -0.0253333 0.0150559 -0.0045746 
251 2 22.6802 -4.89151 -2.43359 0.0271618 0.0293177 -0.104293 
220 1 24.611 -4.72777 -5.35303 0.0181709 0.015944 0.0107986 
222 1 25.8298 -4.5859 -4.85487 0.0115368 -0.0129848 -0.0156631 
221 1 27.1566 -5.00897 -5.73435 0.0180229 -0.0306893 0.00868634 
227 1 28.4645 -4.52757 -5.27318 -0.00460703 0.00787501 -0.000970076 
236 1 25.0252 -4.75674 -2.93633 0.0221567 -0.0102205 0.00559778 
228 1 26.2444 -4.5567 -3.37967 -0.00573509 -0.00918771 0.0177992 
240 1 27.6908 -4.11887 -3.0227 -0.00424251 0.0116903 -0.0274415 
238 1 28.7344 -3.8124 -3.93607 -0.00749784 0.00697596 0.00992694 
252 2 27.9239 -3.89685 -1.96391 0.151879 0.0806808 0.00517965 
357 2 29.7379 -3.4252 -3.66521 0.0597796 -0.015343 0.0346084 
544 1 15.0437 -6.74669 4.15846 0.00473315 -0.0401421 0.0116427 
542 1 15.3868 -7.92572 3.5577 -0.0220572 -0.00793183 0.0249425 
556 1 15.4388 -6.87163 1.31147 -0.00224992 0.0142229 -0.0128486 
555 1 15.9265 -7.89965 2.2048 -0.0206995 0.0131808 0.0139817 
546 1 14.2917 -6.48285 5.19329 0.0108457 0.0114281 -0.0157586 
548 1 16.4458 -9.17246 1.60239 -0.0192102 0.0175774 0.0213536 
541 1 15.2654 -8.96935 4.52746 -0.0209864 0.0267043 -0.0368127 
553 1 17.0529 -9.93137 2.85868 -0.0138726 0.00861906 -0.0057681 
567 2 16.3987 -9.57415 0.623089 0.0697842 0.0457559 0.0154975 
568 2 15.2494 -7.14032 0.243514 -0.0550639 -0.0480774 0.0595989 
547 1 16.1836 -9.97367 4.01665 -0.0115424 0.0337811 0.0163185 
565 2 17.6056 -10.6476 2.39148 0.0621272 -0.00428811 0.0098989 
569 2 16.126 -10.7517 4.85558 0.0275344 0.0277691 -0.0386794 
550 1 15.4222 -5.41761 3.28501 -0.00773105 0.005518 -0.0048865 
559 1 15.1151 -5.60693 1.82923 0.0179527 0.00996063 0.00729526 
564 1 14.0671 -5.25584 5.98507 0.00455268 -0.0384139 0.0263102 
571 2 15.0006 -4.83074 0.978291 -0.0173281 -0.0400836 -0.0888048 
570 2 13.5656 -10.018 8.98703 -0.023506 0.0232187 -0.0455942 
563 1 13.4072 -2.84948 2.64283 0.0304271 -0.0217642 0.0152563 
560 1 14.8698 -4.08769 3.58044 -0.00212249 -0.0242211 -0.0141333 
552 1 14.2636 -2.82984 3.60327 -0.021819 0.00373355 -0.00502355 
576 2 14.4124 -4.34524 5.88386 -0.0143317 -0.0300541 0.0436689 
562 1 13.8229 -5.77846 7.306 0.0287371 0.0266467 -0.0155778 
557 1 15.2509 -11.9187 8.47366 0.0281355 -0.0113041 -0.0127098 
545 1 14.0183 -7.64779 6.03045 0.011278 -0.0117107 0.012949 
543 1 14.6927 -8.90208 5.80127 -0.0100442 -0.00959328 0.00629015 
561 1 12.5693 -8.25508 8.29894 -0.0110961 -0.018662 -0.0198704 
558 1 13.546 -9.3298 8.0548 0.0207414 -0.00512594 0.0197642 
549 1 14.6893 -9.61319 7.11237 0.00923596 0.00247206 -0.0231235 
554 1 14.9342 -10.8747 7.62015 -0.0100961 0.0093256 -0.0144249 
551 1 13.41 -7.31845 7.50076 0.00834768 -0.0162619 -0.0112122 
572 2 12.6229 -2.61882 1.91365 0.101231 0.0444059 -0.00496873 
278 2 15.5551 -3.17516 32.2692 -0.0475536 -0.0255546 -0.0329292 
283 2 15.361 -2.58854 31.8874 -0.118034 -0.0506129 -0.0500592 
504 2 26.3083 10.2593 18.0936 0.049939 -0.036897 -0.0453124 
71 2 26.008 10.2969 17.5225 0.11359 -0.0104407 -0.051958 
135 2 25.7366 5.88938 13.5885 0.0587042 -0.0727748 -0.031914 
282 2 25.2606 6.16356 13.0682 -0.00953424 0.0151474 0.0938422 
277 2 12.7936 21.1156 -2.83239 0.0490092 -0.0558851 -0.103943 
575 2 18.3685 18.0715 11.2332 0.0235276 -0.063867 -0.0192239 
265 1 12.271 19.9741 -2.50707 0.00360706 0.024691 0.000151507 
271 1 12.0169 15.8821 0.0569704 -0.0438913 0.0159528 0.0347843 
259 1 12.592 18.7605 -3.51365 -0.0268287 -0.014271 0.00520288 
566 2 14.756 35.9658 9.46173 0.043592 0.00660372 0.0762763 
266 1 13.2224 19.3435 -4.9529 0.0180331 -0.00768623 -0.00209579 
269 1 12.3975 18.8666 -5.94937 -0.0297547 0.0164007 0.0155878 
281 2 12.6623 19.2684 -6.99839 -0.00913625 -0.0400068 0.0301018 
254 1 12.1297 16.799 -2.21489 0.0245294 -0.0277603 0.00474686 
280 2 12.0316 17.8073 0.955656 0.00251087 -0.0645423 0.00428247 
33 2 21.0194 14.1085 16.7653 0.0139438 0.0411734 0.0780686 
122 1 34.9578 20.1494 24.1709 -0.0129488 -0.00171201 -0.0118849 
115 1 34.9911 19.8324 25.511 -0.015904 -0.00388091 -0.0119212 
140 2 31.1771 19.4503 31.1525 -0.0267107 0.0747869 -0.0680715 
138 2 29.0745 19.4542 23.6023 -0.118669 -0.0105431 0.0343917 
141 2 29.3222 20.9987 24.476 -0.0537907 -0.0570296 -0.0112163 
129 1 29.7215 20.2089 23.8148 -0.0410182 -0.0192223 -0.00644099 
126 1 31.3055 20.1345 23.4472 -0.0285762 -0.00167598 0.0138733 
125 1 33.6945 20.5158 23.4136 0.000931877 0.00121426 0.0106895 
137 2 33.5601 21.3402 22.6008 -0.0747845 -0.0163597 -0.0827214 
128 1 30.9525 19.1764 30.0751 -0.00423517 0.00887079 -0.0160193 
118 1 32.0363 18.659 29.5439 0.0263978 0.0083806 0.0156447 
139 2 33.3944 17.2823 31.0328 0.0168992 0.061017 0.0202606 
127 1 33.4263 17.9608 30.1101 -0.0304926 0.00411329 -0.0103878 
116 1 34.4307 18.4625 28.0246 -0.0161886 -0.00512309 -0.011679 
143 2 28.6854 20.0307 29.0937 0.0532342 -0.0022464 0.0417586 
142 2 27.8665 18.1726 26.7634 0.0653282 0.0409636 0.060797 
132 1 28.5937 18.7806 26.9839 -0.0366736 -0.0206291 -0.00758368 
130 1 28.8607 19.7958 26.0972 0.0135319 0.002696 0.00539847 
131 1 29.6949 19.6113 29.2544 -0.0104372 -0.00935581 -0.00358452 
124 1 34.1462 17.747 29.0371 0.00261824 0.0459598 0.00588189 
110 1 33.3955 19.0242 27.5629 -0.0026472 0.00315212 0.000841889 
120 1 29.8277 18.8211 27.958 -0.00211253 0.00579763 0.00446339 
112 1 32.3782 18.8613 28.1828 0.0163167 -0.00116799 -0.0113715 
114 1 31.1132 18.658 27.4041 -0.0336527 -0.00153656 0.0139326 
119 1 30.1676 19.7056 25.3423 -0.0108922 0.0109325 0.00669913 
113 1 31.2145 18.8843 26.0072 -0.00307174 0.00218409 0.0313761 
111 1 32.4132 19.6561 25.5414 0.0032036 0.00929912 -0.00793319 
117 1 32.5124 19.9089 24.0558 0.00487772 0.00123627 0.0128109 
109 1 33.6888 19.4701 26.1386 -0.0143678 0.0208482 -6.2866e-05 
121 1 35.5619 20.2779 26.8819 -0.00769959 -0.0204473 -0.00701572 
123 1 35.6346 19.4614 28.0856 -0.0148465 0.00421947 0.00457305 
351 2 12.1445 20.2807 19.262 0.0475489 -0.0666685 0.0323422 
134 2 35.797 20.4977 23.6498 0.0270799 -0.00945713 -0.00262729 
468 2 39.1249 -11.2255 -6.55628 0.0591614 -0.077783 -0.0294963 
529 2 58.2855 10.2271 4.09469 -0.0402742 0.0181049 0.0597795 
517 1 59.2766 10.4426 4.41396 0.00597277 -0.0114836 0.00979094 
444 1 40.1651 -11.6642 -4.77958 0.00327695 0.00240954 -0.00754148 
519 1 59.9099 11.5721 4.74535 6.12132e-05 0.0499922 -0.00176915 
467 2 40.4746 -9.27109 -4.59383 -0.0394617 -0.0188892 0.0264711 
455 1 40.3389 -10.2217 -4.06934 0.0132334 -0.00553107 -0.00594822 
452 1 40.6735 -10.0215 -2.73551 0.0092528 -0.0261732 -0.0106124 
442 1 41.2236 -11.0952 -2.15358 -0.00396032 -0.0158905 -0.00695054 
451 1 41.5708 -11.4882 -0.723147 -0.0040382 0.00334984 -0.00935179 
463 2 41.5852 -10.4622 -0.3366 0.0190029 -0.0138654 -0.0777472 
530 2 59.1795 8.00309 4.44464 0.0495696 0.00553585 0.0197822 
177 2 58.9074 -10.9984 12.2475 -0.0126716 0.0123121 -0.0262544 
250 2 57.3303 0.947906 25.2463 -0.0393177 -0.143696 -0.0531527 
453 1 39.0926 33.9728 -8.67605 0.000657165 0.00850428 -0.00129277 
443 1 40.0151 34.1057 -7.64607 -0.0179943 -0.00505075 -0.0152093 
465 2 41.128 34.0694 -8.13055 -0.0938665 0.0516934 0.00162212 
454 1 39.8273 34.6305 -6.29491 -0.00672817 -0.00728855 0.0164853 
464 2 51.5872 35.1513 -2.228 0.102004 0.09581 0.0823967 
64 2 51.3181 35.5599 -2.49198 0.118772 -0.0415614 0.0794102 
450 1 38.4395 34.2037 -9.88225 0.0208008 -0.0188732 -0.00738789 
493 2 56.6057 22.9981 -3.35679 0.0280627 0.0109977 0.0144139 
481 1 57.2494 24.2045 -1.38405 -0.00182189 0.0208731 0.00353705 
483 1 56.8144 23.6857 -2.6883 -0.00804386 0.0112627 -0.0201206 
499 2 57.7635 25.0943 -4.21126 0.00560097 0.0569832 -0.0247729 
484 1 57.7925 25.6489 -3.1744 0.0260525 -0.00167061 0.0314205 
476 1 57.5476 25.5062 -1.73057 -0.0215628 -0.00134973 -0.00589264 
92 1 59.8212 22.0062 10.9117 -0.014359 0.00307326 0.00600076 
478 1 59.376 27.5193 -2.897 -0.00326001 -0.00679074 0.0175139 
487 1 58.7356 26.6502 -3.40699 0.00166935 -0.000312711 -0.0210071 
472 1 59.6291 27.1674 -1.47551 -0.0283731 0.0193322 0.0208455 
470 1 58.3228 26.3668 -0.799438 -0.0114635 0.0243181 0.000544592 
461 2 40.4661 31.7191 -6.1287 0.0709176 0.0201331 -0.0179416 
433 1 42.2117 33.3903 -3.21723 0.0248039 0.00150391 0.0267958 
435 1 41.6841 33.2359 -4.65279 -0.00785611 0.000503883 0.00815827 
441 1 41.5214 32.0971 -5.51591 0.0125635 -0.01701 -0.00197683 
449 1 42.7495 31.2682 -5.14272 0.0265637 0.0272971 -0.0294301 
434 1 42.0829 34.5773 -2.10669 0.0412528 0.0182763 -0.0194462 
437 1 40.8549 34.3627 -5.07251 0.0165651 -0.00665438 -0.00428731 
436 1 41.5665 35.5181 -2.61145 -0.0256537 0.00572842 -0.0214234 
438 1 41.0028 35.5064 -4.18625 -0.00297372 0.0224205 0.00226913 
439 1 43.1357 32.4197 -2.77416 0.0165175 -0.0174087 0.00086476 
446 1 43.3531 31.4672 -3.96782 -0.0163086 0.000123299 0.000546121 
458 2 44.1655 30.6132 -4.93524 0.0772172 0.0642751 -0.00931152 
445 1 43.6388 32.3451 -1.40807 -0.0275708 0.00616218 -0.00354903 
440 1 42.7762 34.435 -0.933068 -0.000340879 -0.00856465 0.0104154 
457 2 44.0816 31.5398 -0.911743 -0.123798 0.0543626 -0.0258015 
447 1 43.6536 33.3169 -0.367495 0.0134275 -0.0112782 0.0072204 
448 1 41.9948 35.2623 -0.0397033 -0.00402785 -0.0154925 0.00310551 
460 2 41.6246 34.5932 0.762867 0.0972095 0.0136545 -0.0384753 
108 2 58.3757 21.5477 -0.0509042 0.028046 0.0236069 -0.180169 
494 2 59.1106 21.0431 2.18211 -0.0347146 -0.0106681 -0.139576 
475 1 58.2144 22.4658 0.696738 0.00369155 0.00109336 -0.0422857 
482 1 58.5157 22.0882 2.09936 0.0227893 0.00525648 0.0143006 
469 1 57.6121 23.6747 0.124949 0.00580498 0.000376186 -0.0199598 
531 2 59.4333 12.6319 4.63382 0.00108401 -0.0295877 0.0199426 
474 1 59.3622 26.494 1.79541 0.0138396 -0.0125739 -0.00566728 
500 2 59.7435 26.4853 3.84194 0.035264 0.0575786 -0.00125255 
501 2 57.3576 25.0875 4.40363 -0.120401 0.0264835 -0.0204103 
498 2 57.1036 23.0582 3.75541 -0.0492406 -0.0196076 -0.0394216 
485 1 57.6772 22.9723 2.78694 -0.00550718 -0.00213316 -0.00117208 
491 1 58.9787 26.1431 3.10658 0.0237894 -0.0106128 0.0177727 
488 1 57.6716 25.546 3.47446 0.0104207 0.0107689 -0.0142508 
471 1 57.5682 24.9942 1.02965 0.000547666 -0.00481667 -0.0253885 
477 1 57.5276 24.3787 2.36429 0.0166458 -0.012377 -0.0146339 
479 1 58.3483 26.1212 0.669729 0.0230504 -0.0174269 0.00869975 
459 2 43.4459 33.0714 0.752332 0.0663151 -0.0737832 0.0267764 
107 2 58.7377 23.8311 11.0359 -0.0470435 0.0316302 0.133546 
95 1 59.597 23.2676 10.4857 -0.0227428 -0.0110272 -0.00823833 
462 2 37.6908 33.8449 -10.276 0.0260212 -0.125772 -0.0810663 
96 1 59.7694 25.2675 8.45161 -0.0134811 0.00614213 -0.000607546 
84 1 59.9499 23.8365 9.24837 -0.00529721 -0.0124447 0.0221069 
456 1 39.52 35.915 -5.9915 -0.0120012 0.014838 -0.012209 
104 2 59.4416 21.3536 11.798 -0.00931007 -0.0362649 -0.0409279 
165 1 59.881 28.1024 15.6045 -0.0139922 -0.000736991 -0.00850206 
162 1 59.653 29.1144 16.3006 0.00720511 -0.0157632 -0.0220466 
153 1 59.7339 30.4998 16.6563 0.00195412 0.0348192 0.00439749 
161 1 58.7119 31.3107 17.4045 -0.00480393 0.000835497 -0.00633519 
170 2 58.8018 33.2712 18.3687 0.0498147 -0.0184265 0.00434696 
151 1 59.4773 33.6561 16.4339 0.0165529 0.00139677 0.0061931 
158 1 58.8861 32.6713 17.4936 0.0149698 0.00721381 -0.00907047 
174 2 59.7929 27.1067 15.1435 0.0252881 0.0771065 0.0658365 
157 1 59.2092 35.0827 16.2331 0.0220716 -0.00106426 -0.014396 
173 2 57.8243 30.9266 16.7356 -0.0684695 -0.0198738 -0.0211893 
171 2 58.3467 35.6441 16.9298 -0.0113907 -0.0587779 -0.0174623 
496 2 36.4566 20.1789 28.4101 -0.0145897 0.078566 0.0784589 
369 1 77.7659 -10.4705 -6.17012 0.00938958 0.00688026 0.01279 
378 1 78.0742 -8.92409 -6.31108 -0.000397207 0.0060077 -0.006502 
495 2 77.9419 -8.42424 -7.47824 -0.00250658 0.00188982 0.0197063 
393 2 78.1566 -7.11501 -5.40572 -0.00667594 0.0342739 -0.019713 
377 1 78.488 -11.2983 -7.07539 0.0295651 -0.0276914 0.00845686 
389 2 79.1873 -10.722 -7.81063 0.0410483 -0.00305061 -0.00638721 
187 1 71.2055 -2.0516 -10.3505 -0.00773966 -0.00996359 0.00527426 
193 1 70.8483 -3.47796 -10.2709 0.0238756 0.029076 -0.0429701 
194 1 70.5233 -1.64901 -11.5959 -0.0055247 -0.0379317 0.00502149 
207 2 69.7826 -4.14109 -8.53746 0.0920777 0.057481 0.0110517 
195 1 70.5386 -3.55274 -8.84316 0.0135498 0.000217217 0.0205972 
205 2 70.4558 -3.91603 -11.1004 0.00493 0.00160168 -0.0292016 
181 1 72.377 -1.31983 -9.48042 0.0182281 -0.00508473 -0.0192882 
208 2 72.0482 -5.02072 -6.44173 0.098941 -0.00763975 0.0451404 
188 1 71.7481 -3.22152 -8.12644 0.0224241 0.00603083 -0.00945733 
196 1 72.4864 -4.09196 -7.16943 -0.0206113 -0.0102237 0.00106315 
182 1 72.5857 -1.97513 -8.2343 -0.0379112 0.00829984 -0.00162502 
199 1 73.779 -3.88225 -6.79912 -0.0105891 0.00099742 0.00793954 
190 1 74.4568 -2.64663 -6.95839 -0.00989575 0.0128305 -0.005847 
184 1 73.8061 -1.41799 -7.66811 -0.00144695 -0.0145526 0.00152769 
200 1 75.5327 -2.16626 -6.14726 0.00140448 0.0107317 0.0544902 
203 1 76.213 -1.08509 -6.65364 0.00299024 0.015534 -0.000934063 
211 2 74.2096 -4.7037 -6.02536 0.114465 0.0221798 0.00676235 
212 2 75.9145 -2.20888 -5.06325 -0.0646314 0.0741723 0.0792828 
189 1 72.3206 0.146649 -11.2426 -0.0138794 0.0250415 0.0056277 
215 2 77.0412 -0.680841 -6.14977 -0.0400589 -0.053316 0.0361736 
183 1 72.9843 -0.12015 -9.91267 -0.00609018 0.00709936 0.00133095 
201 1 73.98 1.89972 -11.235 -0.0543587 0.00438845 -0.00537074 
185 1 74.2005 0.268315 -9.35188 0.023572 0.00883827 -0.0229325 
186 1 74.5551 -0.242709 -8.19312 0.00957643 -0.0173906 -0.0132725 
192 1 75.7089 -0.0284989 -7.72438 0.028893 -0.0250289 0.0137155 
204 1 75.7381 1.15536 -7.14812 -0.00114121 -0.0252819 0.000608245 
202 1 75.1408 1.87591 -6.46724 0.00971677 -0.0177515 0.00954788 
191 1 74.8021 1.40007 -10.1194 0.000781282 -0.0329022 0.00655896 
213 2 75.4393 2.29109 -9.86688 0.0496633 -0.0323456 -0.0285379 
214 2 74.708 2.55905 -5.90879 -0.0249943 0.0073365 -0.0527964 
518 1 60.241 8.04439 4.39273 -0.00127429 -0.0221663 0.0277247 
133 2 74.1132 2.63294 -11.9376 0.0373561 0.00166534 -1.00582e-05 
381 1 77.7631 -8.13637 -5.17954 -0.0157612 0.035568 0.0289434 
363 1 77.7892 -10.7841 -4.7267 -0.0031484 -0.00679776 -0.00243693 
365 1 77.0513 -9.80113 -3.90192 -0.000730407 -0.00222668 -0.01104 
390 2 75.0698 -8.62732 -3.75195 0.0842014 0.0410302 -0.0538604 
382 1 75.9966 -8.04305 -3.08136 0.0126745 -0.00716654 -0.0185569 
372 1 75.7442 -9.93505 -1.6755 0.00934379 -0.0098878 0.0239289 
366 1 76.2295 -10.4374 -2.83663 -0.0141971 0.00643059 0.0296701 
371 1 77.195 -8.45163 -3.6917 0.012333 -0.00831029 0.00899621 
384 1 75.8883 -8.41712 -1.67843 -0.0161104 0.00687966 -0.0261036 
396 2 76.3572 -7.88209 -1.05847 0.0304349 -0.0999422 -0.0766041 
383 1 75.0163 -10.4435 -0.521678 0.00816847 0.0207119 -0.0110693 
395 2 74.2954 -9.86231 0.201443 -0.075181 -0.0268654 0.0307343 
528 1 64.5465 10.7007 -1.25917 0.0112386 0.00960406 0.00423343 
515 1 63.4807 8.7998 0.0914172 0.00699188 0.00532709 -0.00351502 
526 1 64.6996 9.37151 -0.795886 0.00420382 -0.00547286 0.0127306 
538 2 65.4128 8.64078 -1.11006 0.0868305 -0.0254014 -0.0299477 
525 1 63.3873 7.56551 0.569189 0.0177001 -0.0128849 0.0039328 
534 2 63.7557 6.57266 0.332143 -0.0023857 0.0268369 0.10891 
516 1 63.711 11.5078 -0.149559 0.0175665 -0.0195209 0.011283 
508 1 62.021 11.9423 1.6463 -0.000224899 -0.0031463 0.0162066 
533 2 62.3281 5.40589 2.93625 0.102659 0.0760065 0.0470348 
513 1 61.9178 6.73323 2.75212 -0.00552705 0.000515362 0.00382849 
509 1 62.2754 9.60268 0.453809 0.0113972 -0.00170152 -0.00325807 
510 1 62.5627 11.0685 0.637416 0.0213269 -0.010906 0.0175614 
522 1 62.6471 7.74735 1.84691 -0.00353805 -0.029634 0.0187433 
521 1 61.1043 7.29999 3.57498 -0.0191549 0.0170421 0.0178514 
505 1 61.5296 9.83101 3.07712 0.0102281 0.00302852 -0.0197106 
507 1 61.8162 9.02803 1.76113 -0.025099 0.0105524 0.00219988 
176 2 63.0796 0.782172 -6.18676 0.0120741 0.0195073 -0.0355616 
506 1 61.4327 11.2664 2.78271 -0.00571551 -0.0322912 0.00552119 
248 2 62.9204 1.59086 -5.98701 0.06123 -0.0530804 0.0321491 
198 1 72.9969 1.13138 -11.563 0.0336792 -0.00231195 0.0176968 
511 1 60.3898 9.47404 3.92143 0.0236021 0.0348221 0.0187106 
380 1 75.4662 -11.8242 -0.322922 -0.00481658 0.00486782 0.00933618 
512 1 61.2022 11.9174 4.10884 0.0251373 0.00285508 0.00261454 
364 1 76.6137 -11.8958 -2.61949 0.00572316 -0.00758462 0.00641244 
66 2 60.8647 -11.1849 29.4071 -0.0369919 -0.0212252 0.00011056 
209 2 71.0945 0.0801417 35.0234 -0.0645291 0.0139134 -0.0559132 
315 2 82.2402 -11.3633 24.7404 -0.0770036 0.0109603 -0.00356398 
316 2 82.5621 -9.52258 23.0538 0.026154 -0.00833592 0.0131359 
58 1 61.4621 -11.4485 27.1614 0.0136095 0.0102222 0.00973635 
41 1 62.6936 -10.6428 27.0812 -0.0166294 0.00482792 -0.0385652 
39 1 63.4885 -9.59457 27.885 0.00591808 -0.0176441 -0.00412839 
42 1 63.4435 -11.5109 26.1818 -0.00722855 -0.012545 -0.00324031 
40 1 64.8852 -11.2188 26.0492 -0.0151474 -0.013002 0.0267962 
38 1 65.6847 -10.421 27.051 -0.0259083 -0.00244564 0.0237819 
37 1 64.8893 -9.46523 27.7989 0.0164938 0.00835827 0.00763758 
43 1 65.743 -8.84516 29.1028 0.0208653 -0.0299188 0.00333191 
45 1 62.7779 -9.47043 29.1205 0.0148005 -0.0123704 -0.000881377 
62 2 62.2164 -10.2928 29.2141 -0.0430672 0.0396906 -0.00329339 
50 1 64.9205 -8.34159 30.0902 0.00266255 -0.0294996 0.0132676 
53 1 63.1953 -8.41067 30.0175 0.0049964 -0.0133165 0.0205738 
320 2 82.9659 -5.08256 26.0879 -0.0542837 -0.0617697 -0.029983 
63 2 69.1335 -10.5614 26.5903 0.031853 0.0286489 -0.0151087 
51 1 68.0052 -10.5583 26.3024 -0.000494547 0.0083099 -0.0125038 
44 1 67.0279 -10.1629 27.4609 -0.0298855 0.0367122 -0.0360208 
49 1 66.9861 -9.04743 28.4376 -0.0184916 -0.00840872 -0.00772916 
61 2 67.9488 -8.44747 28.1645 0.0127211 0.0182399 -0.0517341 
318 2 74.5385 -6.09903 28.7412 -0.0964329 0.0260445 0.00166239 
322 2 78.6036 -5.23555 28.106 0.0560569 0.011333 0.0421133 
310 1 78.267 -6.29555 27.6812 0.0056514 0.00373456 0.0253706 
306 1 76.8569 -6.99342 28.3031 0.00457833 0.0132436 -0.00706078 
299 1 75.6742 -6.58348 28.5392 0.0147017 0.0280476 0.0159204 
309 1 76.4869 -8.43529 27.9615 -0.000521429 -0.00240305 0.000693778 
297 1 77.3933 -9.26776 27.1347 0.00152728 0.0369519 0.0044426 
317 2 76.049 -10.69 27.471 0.0232922 0.0297808 -0.0444585 
304 1 82.8771 -8.9636 23.9104 -0.0142627 -0.0114985 0.00464721 
290 1 80.7019 -8.57497 25.3228 0.0222907 0.00628994 -0.00188163 
292 1 81.0371 -7.13105 25.5396 0.044125 -0.00220717 -0.000267775 
293 1 78.9236 -6.91574 26.6885 -0.0220742 0.0114909 0.0234314 
294 1 80.0456 -6.23251 26.0826 0.015537 0.0095416 -0.00383581 
291 1 78.6458 -8.64691 26.6161 -0.0147264 -0.0091521 -0.00592811 
289 1 79.5875 -9.1457 25.8172 -0.00290746 -0.00117761 0.0107662 
305 1 77.038 -10.684 27.3154 -0.0344787 -0.014058 -0.00478083 
295 1 79.0026 -10.7164 25.7659 -0.00827237 -0.0223332 -0.0377069 
302 1 77.8531 -11.434 26.3266 0.00306624 -0.0226738 0.0119019 
301 1 80.1911 -11.3689 25.6902 -0.00642631 0.00973665 -0.000415557 
303 1 81.2573 -10.8622 24.8047 0.0228571 0.00201507 -0.0142169 
296 1 81.5526 -9.50533 24.5376 0.0173561 -0.0161534 -0.0265897 
307 1 83.3514 -7.67295 24.2817 -0.0162022 -0.0209543 0.011575 
298 1 82.2225 -6.93256 24.8175 -0.00153502 -0.0195131 -0.00686623 
65 2 62.6242 -8.31633 30.9054 -0.065547 -0.18879 0.0436813 
324 2 80.7942 -3.13147 26.032 -0.00847941 -0.0800474 0.00802639 
323 2 81.724 -3.19795 24.6384 0.0553608 0.0163219 0.0102637 
321 2 78.9617 -3.572 26.383 -0.106051 0.0240364 0.0629246 
312 1 79.8516 -3.61274 25.9048 -0.010676 0.00384712 0.0171883 
52 1 67.4346 -11.6491 25.634 0.0170706 0.0034316 -0.0190635 
311 1 81.6389 -4.44139 24.9699 -0.0138063 0.00994122 -0.0245107 
300 1 80.3065 -4.90126 25.3422 0.0131921 -0.00063174 -0.0192546 
308 1 82.6106 -5.46132 25.0366 -0.00116197 -0.00813823 -0.0174698 
197 1 71.2898 -0.564932 35.8482 -0.0307607 0.0169606 -0.0116697 
169 2 60.2292 -10.9486 15.495 0.0120158 0.00433185 -0.0642529 
206 2 70.002 -2.26911 35.7398 0.000579578 0.0106684 0.0452098 
367 1 78.4948 35.0518 -5.58966 0.00532232 0.0124657 0.0351842 
386 2 79.1827 34.7276 -7.67569 -0.0839142 0.0134109 0.065441 
374 1 78.7963 35.2717 -6.88592 0.000974951 0.0274844 -0.00362662 
385 2 78.7264 34.0562 -5.29955 -0.0494151 -0.0548861 0.0397173 
527 1 63.5804 12.8288 -0.282378 0.00120558 0.015345 0.023649 
473 1 60.8386 26.4932 -1.59287 -0.00774039 0.0179917 0.0111501 
480 1 61.757 25.6241 -1.29486 0.00613493 -0.0185131 0.00076803 
490 1 62.9232 25.0347 -1.3064 -0.00490924 0.0023963 0.0036717 
361 1 77.8977 35.9292 -4.61395 0.00310455 -0.0253727 -0.000680198 
503 2 60.0223 28.3601 -3.27887 -0.0804194 0.0391122 0.0621971 
91 1 61.8443 20.7515 11.1062 0.0181837 -0.011765 -0.0197481 
379 1 76.1538 33.988 -1.5932 -0.00869247 0.0160187 -0.0158009 
370 1 76.1852 35.5645 -1.35809 0.0274043 -0.00946868 0.00546239 
362 1 77.5551 35.2723 -3.24501 -0.017854 0.00502267 0.00935199 
373 1 79.5282 32.0575 -2.90794 -0.0355393 -0.0116742 0.00549652 
375 1 79.3684 33.3252 -2.76352 0.0241934 -0.0089926 -0.0136008 
388 2 80.4845 33.7061 -2.64238 -0.0153244 0.0243167 0.129579 