ITEM: TIMESTEP
540000
ITEM: NUMBER OF ATOMS
576
ITEM: BOX BOUNDS pp pp pp
-1.2000000000000000e+01 8.4000000000000000e+01
-1.2000000000000000e+01 3.6000000000000000e+01
-1.2000000000000000e+01 3.6000000000000000e+01
ITEM: ATOMS id type x y z vx vy vz 
435 1 -0.173152 -11.2539 -11.3938 -0.0103007 -0.0160055 0.0136863 
441 1 -0.678651 -10.1244 -10.6496 0.0214777 -0.0190699 0.00460415 
539 2 8.65331 -5.92266 -5.06176 -0.0841709 -0.00180897 0.0332495 
450 1 -0.0248174 -9.84257 -9.37645 0.00787791 0.012181 0.00915639 
449 1 -1.77653 -9.4222 -11.0616 0.0139058 -0.00865539 -0.0118925 
462 2 -0.265601 -8.82225 -8.57339 -0.0657456 -0.028108 -0.0982346 
461 2 -2.26669 -8.954 -10.1234 0.0201676 0.0106552 -0.0791212 
511 1 -5.46292 -3.98944 0.803258 0.0245443 0.00379302 0.0206296 
437 1 1.03917 -11.8085 -11.1169 0.015629 0.00786242 -0.0169162 
443 1 1.48351 -11.4795 -10.0015 0.0156735 0.00516485 0.000330772 
453 1 1.02547 -10.6632 -8.89251 0.00420481 -0.000410688 0.0150988 
179 2 8.05211 -5.95581 -4.31267 -0.0484721 0.0444524 0.0308203 
465 2 1.28271 -10.6938 -7.46167 -0.0402221 0.0319343 -0.0687797 
536 2 -5.61317 -4.92014 -6.42173 0.0371048 0.00352812 -0.0203982 
528 1 -8.57368 -6.47929 -3.53387 0.00953568 0.00834887 -0.00667188 
538 2 -10.9163 -6.72287 -2.6809 0.0493561 0.0333763 -0.0656034 
526 1 -9.66583 -6.57647 -2.5332 0.0035436 0.00187866 0.0136752 
534 2 -10.9781 -5.6333 -0.447878 -0.0421859 0.067804 -0.0786308 
525 1 -9.89599 -5.82884 -0.218983 0.00497302 -0.0180653 0.016963 
515 1 -8.87482 -6.34155 -1.3299 -0.00630744 -0.00122935 0.0121767 
522 1 -9.1802 -5.91849 0.911539 0.0184475 0.000685681 0.0185353 
509 1 -7.59948 -5.70766 -1.33054 0.00844265 -0.00519496 -0.00422993 
507 1 -7.43159 -4.94362 -0.100542 0.00365595 0.0149796 0.000917952 
527 1 -6.76568 -5.74838 -5.28667 -0.000530067 0.0128512 0.0180673 
505 1 -6.6432 -3.79364 -0.131973 0.0032944 -0.00713502 0.0181167 
516 1 -7.21874 -6.10219 -3.79602 -0.0095324 -0.00837026 -0.00114223 
510 1 -6.72433 -5.47723 -2.57478 -0.0134754 0.0106544 0.0107922 
508 1 -6.05834 -4.31973 -2.63241 -0.00365452 -0.00474016 -0.00863323 
519 1 -3.33388 -3.5746 -0.557696 0.0104705 -0.00362499 0.0147778 
506 1 -5.82648 -3.77805 -1.31671 0.00820458 0.00855131 -0.0119683 
524 1 -5.56451 -4.78471 -5.15207 -0.0106391 0.00682441 -0.0038716 
514 1 -5.75749 -3.74508 -4.04381 0.0141197 -0.0115122 0.00135396 
512 1 -4.4476 -3.02888 -1.3962 0.00634337 0.0215296 0.0293466 
532 2 -4.83646 -1.30335 -2.47454 0.0184604 0.00648514 0.0826628 
523 1 -4.85124 -2.58265 -4.05214 0.00326555 -0.00733758 -0.0336095 
535 2 -4.65253 -2.23668 -5.20469 -0.0349187 -0.141647 0.0127937 
520 1 -4.27632 -2.34916 -2.73057 -0.0146469 -0.0115563 -0.00759306 
531 2 -2.35951 -3.50237 -0.804412 -0.070306 -0.0410664 0.0389984 
513 1 -7.99959 -5.59533 1.19554 0.0126834 0.00685845 0.00797513 
521 1 -7.35535 -5.13829 2.49793 -0.0123726 0.0223153 0.00970707 
530 2 -5.62798 -3.71822 2.67324 0.0832617 0.0835159 0.00179522 
533 2 -7.35281 -5.17979 3.52677 -0.0197834 0.0625686 -0.0213347 
518 1 -6.07054 -4.57467 2.04698 0.0300488 0.0215141 -0.000809302 
529 2 -3.19311 -4.05998 1.38502 -0.00209648 -0.109723 0.0294182 
517 1 -4.04253 -4.08725 0.500283 -0.00421141 0.00534593 -0.00210405 
392 2 -2.97789 -9.89108 23.2581 0.0569536 -0.052151 -0.105852 
458 2 -3.17545 -8.8442 35.778 -0.0454232 0.0853659 0.0158691 
380 1 -2.38413 -11.0145 23.1036 -0.0177713 -0.0183163 -0.0280379 
71 2 10.6791 1.08066 18.5783 0.0236165 -0.0343796 0.0440859 
504 2 10.3914 1.9405 18.324 0.0441242 0.00892205 -0.0970539 
376 1 -2.04526 -11.4151 26.5838 -0.00344891 -0.0221161 0.0192162 
391 2 -3.19053 -10.02 25.5081 0.0101619 0.020539 0.0500907 
379 1 -2.32508 -10.9553 25.4206 0.00134345 0.001711 0.015508 
388 2 -2.0317 -10.9715 27.8154 0.00613646 0.0269325 -0.0140674 
434 1 0.0185219 -11.9538 34.2345 -0.0131233 -0.000448907 -0.00687746 
445 1 -1.53321 -9.6559 33.4057 0.0100377 -0.0255765 -0.0105037 
457 2 -1.76805 -8.59908 33.1398 0.0324728 -0.00790926 -0.0321913 
439 1 -1.4192 -10.1961 34.715 0.0137363 0.0159613 -0.0151705 
433 1 -0.859821 -11.4818 35.2916 0.0148203 0.00179294 -0.0275844 
370 1 -1.93283 -11.6976 24.1939 -0.00174504 0.0212862 -0.00530107 
447 1 -1.24703 -10.5208 32.3709 0.0200592 0.0281699 -0.00824981 
167 1 -11.7134 10.9911 28.1513 0.00365052 -0.0178397 -0.013854 
383 1 -2.32233 -11.9602 21.9832 0.0296495 0.00494925 -0.0176674 
459 2 -1.32074 -10.1649 31.4064 -0.0105796 0.00127256 -0.0123659 
180 2 -10.9198 11.7962 30.5072 -0.0352016 -0.0586887 -0.0353659 
446 1 -2.23619 -9.46631 35.6177 0.011059 -0.0197913 -0.0266343 
395 2 -1.98912 -11.0762 21.3556 0.0722729 -0.0695591 -0.0824357 
440 1 -0.822449 -11.8041 33.0233 -0.00238476 0.0189721 -0.0161486 
175 2 -11.734 11.5784 24.3165 0.0536327 0.0742206 0.0448609 
99 2 6.37295 19.2913 11.4616 -0.0960818 -0.0262823 0.0411736 
444 1 2.74819 34.6108 -11.5517 -0.0119976 -0.00794195 -0.00103689 
468 2 2.92411 33.3519 -9.81353 0.0776014 -0.0156328 0.0670035 
456 1 2.86848 34.2696 -10.2247 0.00051065 -0.010666 0.0266922 
176 2 1.30378 14.3334 -10.6976 0.0700045 0.0372811 -0.0765201 
454 1 2.29576 35.5124 -9.49407 -0.0349299 -0.0212186 0.00553543 
283 2 3.73785 32.4733 0.542055 -0.0638855 -0.0979582 -0.0283417 
466 2 2.61088 34.9866 -8.59741 -0.00957092 -0.0276598 -0.0171704 
467 2 3.75551 32.6464 -11.7402 0.0591941 -0.0395387 -0.0423145 
85 1 6.65928 18.4101 11.9232 0.0409308 0.0147443 -0.0212583 
452 1 2.71943 33.354 34.3872 -0.000414712 0.000265595 0.0198699 
436 1 1.4179 35.4333 34.399 -0.0200446 -0.0223616 -0.00336571 
100 2 7.62211 16.157 14.7575 0.00109476 -0.0292205 0.0789908 
80 1 7.55708 17.1814 14.23 -0.0267583 -0.0285941 -0.0427223 
87 1 7.2106 17.8293 13.1481 -0.0111334 -0.00562858 -0.016124 
495 2 1.92451 30.1236 23.3532 -0.0888592 -0.0799671 -0.0776085 
382 1 -1.91309 32.621 21.2068 -0.00898413 -0.0299691 0.0175646 
384 1 -1.55269 33.9989 21.0576 0.00861395 -4.13328e-05 -0.0167686 
372 1 -1.50661 34.8407 22.2614 -0.00978552 0.018409 0.0124156 
396 2 -2.00845 34.4273 20.2093 0.000948023 -0.0102957 0.0494683 
366 1 -0.638999 34.3896 23.0964 -0.00265507 0.00893187 0.0146969 
390 2 -2.93571 32.2302 20.6467 -0.0230648 -0.0784894 -0.00247971 
442 1 1.76586 34.173 33.7471 0.00830624 -0.0394672 -0.0171546 
365 1 -0.35304 33.0866 23.1631 -0.00710849 -0.0102596 0.020779 
393 2 0.313666 30.5274 21.3064 -0.0488131 0.0275304 -0.0987105 
381 1 0.251997 31.1131 22.1772 -0.0244991 0.0191787 0.0160479 
378 1 1.26235 30.846 23.3319 -0.0171676 -0.00188591 -0.0158785 
371 1 -0.513156 32.1393 22.0548 0.00446313 0.00599523 0.00363574 
369 1 1.03539 31.3313 24.4046 0.0295932 0.00506553 -0.000865672 
363 1 0.0616432 32.6078 24.3927 0.00823022 -0.0126152 0.0118511 
389 2 2.67206 30.1468 25.5054 0.0277106 0.0335317 0.0414251 
135 2 6.63783 26.3263 25.7118 0.0172533 0.00779635 0.0264411 
282 2 7.41871 26.0311 25.0644 -0.0641956 0.0231082 -0.0945654 
364 1 -1.06382 35.0856 24.339 0.00760754 0.022818 0.00713228 
463 2 0.695353 33.3953 32.3916 -0.00479977 0.0306123 0.00404542 
362 1 -0.345346 34.9976 25.5444 -0.0129297 0.00346245 -0.0191665 
375 1 -0.106225 34.7762 27.7399 -0.0115801 0.00711647 0.00712448 
368 1 -1.01311 35.466 26.5507 -0.00288707 0.0122 -0.0176692 
387 2 0.587264 35.3144 28.4027 -0.0229153 -0.0443621 -0.0124572 
377 1 1.9389 30.9881 25.5502 -0.0210279 0.00893725 0.0110385 
373 1 -0.857273 33.8198 28.0718 -0.00392495 -0.0108538 0.0275627 
374 1 1.97462 31.7172 26.7037 0.0031182 -0.00501377 -0.00846596 
361 1 0.252216 33.4354 25.4997 0.0113736 -0.00529735 0.00922704 
386 2 2.48189 31.076 27.62 -0.00664141 0.0453027 -0.0527411 
367 1 1.0542 32.8907 26.62 -0.00349017 -0.0217014 0.0428726 
385 2 -0.926436 32.8316 28.7268 -0.100354 -0.0660649 0.121539 
438 1 1.92282 35.6979 35.782 0.0175937 0.0210651 -0.00192645 
166 1 -11.2767 13.6942 31.0378 -0.00114306 0.0278064 0.00319493 
168 1 -11.6324 12.4332 30.3336 0.00383097 -0.00145141 -0.00233895 
178 2 -11.0365 13.8335 32.0837 -0.00940455 -0.138164 -0.0342591 
455 1 3.16584 33.3336 35.546 0.00658221 0.00439194 -0.00324001 
451 1 0.903081 34.2537 32.6746 -0.00809517 0.0172307 0.00285031 
448 1 -0.36868 34.8603 32.4412 -0.00250636 0.0177491 -0.0135428 
156 1 -11.9233 12.273 28.9537 0.00427448 0.0051771 -0.021538 
460 2 -1.43517 34.3616 32.081 -0.113005 0.0567928 -0.0213288 
464 2 21.2304 6.24496 5.00831 0.0463681 -0.0731853 -0.0327356 
27 2 24.6021 4.37412 19.6689 -0.0716933 -0.039729 -0.0284839 
28 2 22.2382 5.32462 21.6606 0.0345561 0.0185836 0.096189 
16 1 22.6921 6.16615 21.1658 0.0165454 0.0260216 0.00609532 
25 2 26.6149 3.72003 19.5661 -0.0951844 0.0949384 0.0628502 
26 2 28.8701 4.90116 18.3428 -0.0641389 0.0813944 0.0332212 
15 1 25.2099 4.99651 20.1558 -0.00796468 0.00668509 -0.0076322 
8 1 25.3017 6.14949 21.0851 0.00426563 -0.0140547 0.0117751 
2 1 26.1656 7.35269 20.8725 -0.0301037 -0.00320762 -0.0146793 
13 1 26.6105 4.66932 20.0755 0.00199801 0.0205788 -0.000167561 
7 1 27.7014 5.55686 20.0904 -0.000721942 0.0107088 -0.00997034 
14 1 29.0549 5.35499 19.3246 0.0126064 0.0105234 0.01565 
17 1 30.0412 6.29718 19.6604 0.0177965 0.0072018 0.00680438 
31 2 22.3051 6.29361 20.2278 -0.0637216 0.00208509 0.0454427 
19 1 24.0485 6.77066 21.4118 0.00767554 0.00422878 -0.0208163 
20 1 23.8065 8.95243 22.7021 0.00338512 0.0014754 0.000163148 
23 1 24.6773 10.0411 22.8404 0.0024436 -0.00519675 0.00903632 
35 2 24.3247 10.6781 23.8929 0.0466465 0.0127585 -0.01042 
32 2 22.849 8.89821 23.301 -0.0532056 0.00510458 -0.0958503 
1 1 27.2738 6.90605 20.4954 0.0343818 -0.00900684 -0.0165713 
10 1 24.1939 8.09555 21.5729 -0.0263135 0.0106755 -0.00735448 
4 1 25.514 8.54104 21.4113 0.0278434 0.0187571 0.0453545 
3 1 28.3726 7.67566 21.1898 0.0104771 -0.0019123 0.0130396 
6 1 26.6322 8.81567 22.2458 -0.0073168 -0.0228122 -0.0240749 
5 1 28.0375 8.58295 22.1094 0.0147406 0.0107559 -0.0107234 
30 2 30.5576 7.41989 21.415 0.0551786 0.185915 0.0349222 
9 1 29.8689 7.51294 20.6966 0.0094109 -0.0350845 0.00801052 
12 1 26.1698 9.93008 22.991 0.0131735 -0.00501538 -0.0046116 
24 1 27.2096 10.5635 23.9635 0.00462254 0.00338352 0.00109476 
11 1 28.9543 9.72639 22.3785 -0.0193667 0.0379615 -0.00191787 
21 1 29.281 10.5089 21.3994 0.0228121 0.00785184 -0.0150151 
22 1 28.6275 10.2863 23.7551 0.0127192 0.0116022 0.00245827 
29 2 31.1048 6.54961 19.4119 0.0152796 -0.0595484 0.0608579 
18 1 29.7013 11.1237 20.4195 0.00618752 0.0130644 0.00684259 
33 2 30.0329 8.65161 20.6471 0.0313062 0.166171 -0.035673 
36 2 26.9841 10.6944 24.9615 0.0428266 0.0023119 0.0349495 
34 2 29.0092 10.1537 24.7791 -0.0546956 0.0263649 -0.00157503 
134 2 19.2264 33.0705 9.89187 -0.00820727 0.0549132 0.063585 
210 2 29.5283 19.6591 3.8918 0.01421 0.0350617 -0.0279688 
121 1 17.1878 34.1549 11.6211 0.00881904 0.00158434 0.0372108 
125 1 20.8895 33.7931 11.4606 0.0168786 0.0246659 0.0255067 
122 1 19.6739 33.8443 10.7941 -0.0210045 -0.0163376 -0.00350238 
115 1 18.4168 33.5838 11.5715 -0.0205655 0.0158674 0.00833435 
137 2 21.9611 33.7234 11.0152 0.0970611 0.0296118 0.00484537 
138 2 23.2561 32.8379 11.7615 -0.0228932 -0.0409763 -0.0558932 
133 2 15.3633 34.4592 12.9238 -0.0384548 -0.0175351 -0.0133687 
108 2 34.5123 18.1982 14.1163 0.110327 0.0336092 0.0314609 
475 1 35.7307 18.1837 14.4659 0.0134503 -0.00966787 0.00218438 
494 2 34.3 19.8494 14.6504 -5.16544e-05 -0.0654512 -0.0498412 
482 1 35.3663 19.74 14.5319 -0.00361309 -0.0221601 0.0146221 
140 2 18.3268 28.2062 17.9307 -0.0223858 -0.038046 0.0141772 
128 1 19.3934 28.2451 17.6506 -0.00254284 -0.00729467 -0.00229022 
143 2 20.2113 27.8425 18.321 0.036024 -0.00455724 0.0373451 
177 2 15.2075 30.2018 15.9516 0.0475014 -0.00598476 0.0911203 
118 1 17.4547 30.6044 15.5565 -0.0153088 -0.0122724 0.0177712 
127 1 15.9807 30.8328 15.4857 -0.00675451 -0.0158564 0.0134614 
124 1 15.6673 32.0265 14.809 -0.0189758 -0.0107694 0.0219115 
139 2 17.7975 29.811 15.9766 0.0248432 0.0414427 0.0499709 
136 2 14.9601 32.651 15.0142 -0.0404769 0.0482246 -0.0239539 
116 1 16.6056 32.8685 13.7865 0.0106304 -0.0196928 -0.0168573 
144 2 22.3114 29.3329 17.0636 -0.00636749 -0.00924025 -0.00200113 
119 1 22.0539 31.8784 14.8912 -0.00134683 -0.00823091 0.0219402 
113 1 20.6659 31.9278 14.6184 -0.0101467 -0.0109912 0.0112581 
120 1 20.3634 30.0583 15.9213 -0.00352068 -0.00450488 0.0225597 
131 1 19.6737 29.1359 16.683 0.0152044 0.00865248 -0.0119857 
132 1 21.7742 30.1009 16.5377 -0.0358728 0.0247427 0.0372115 
130 1 22.4682 30.9317 15.7818 0.0333243 -0.019532 -0.022959 
114 1 19.7502 31.2643 14.9434 0.0176612 0.00986892 0.0102467 
112 1 18.4425 31.5847 14.8724 -0.00420278 0.0123959 0.00800965 
142 2 23.5554 30.8952 16.3223 -0.0118474 -0.0491781 0.0235284 
126 1 22.7712 32.8066 12.7374 -0.0109841 -0.0378566 0.00866833 
129 1 23.2582 32.4082 13.9654 0.00742163 -0.000621308 -0.00171552 
141 2 24.3028 32.0416 13.9589 -0.0515969 -0.00344417 0.106003 
110 1 18.0867 32.5646 13.9843 -0.0218143 -0.00885772 -0.00311522 
111 1 20.1107 32.8952 13.5199 0.00658446 -0.0184676 -0.0240826 
109 1 19.0476 33.1688 13.0309 0.00644151 0.0103208 0.0189338 
250 2 23.6396 25.3097 33.3801 0.0335736 -0.00862334 -0.00752909 
123 1 16.244 33.923 12.9366 -0.0142382 0.0125432 0.00659878 
117 1 21.2241 33.102 12.7564 0.0367482 -0.0174767 0.0313104 
566 2 47.8636 5.95847 23.2029 -0.0468523 -0.0208607 0.0410216 
567 2 53.4285 3.62888 27.2053 0.00788179 0.0482299 -0.0078593 
553 1 53.2634 3.43163 28.3043 0.0104534 0.0117066 -0.0247396 
565 2 54.2575 3.24941 29.0847 0.0586886 0.00679491 0.00820298 
555 1 52.2357 4.12951 29.0171 0.000338411 0.0275733 0.0114386 
548 1 51.2482 4.66698 28.3508 0.0302284 -0.00791094 -0.0131637 
542 1 50.0554 5.4026 28.069 0.0126556 -0.00547081 0.00270075 
569 2 50.49 4.05615 25.6713 0.00552073 -0.045674 -0.0789357 
547 1 49.795 5.15666 25.6235 -0.000816614 -0.00320486 0.0209802 
544 1 49.3013 5.77872 29.2894 0.0109039 -0.00285675 -0.0208273 
541 1 49.5918 6.00074 26.5813 -0.019091 -0.00189923 0.0117483 
562 1 45.8022 7.85086 29.1095 0.0149661 -0.0172415 0.000615954 
551 1 46.253 7.35896 27.7179 0.0323627 -0.0103292 -0.0417635 
561 1 45.4537 7.46902 26.6677 -0.0165189 -0.0219605 0.0331264 
573 2 44.6511 8.12412 26.8671 -0.165108 0.0862099 -0.00593662 
574 2 44.8129 7.67548 29.2434 -0.0239416 -0.111738 -0.0255946 
545 1 47.7168 6.815 27.7606 -0.0199228 -0.00178572 0.0126224 
549 1 47.7569 6.96653 25.4073 0.011796 -0.0416524 -0.0251116 
570 2 46.3462 8.25369 24.5177 -0.0557245 -0.0550895 0.0932896 
558 1 46.3196 7.39191 25.394 -0.0185135 0.00771331 -0.0164379 
394 2 40.6807 3.60914 27.0832 -0.0518088 -0.0773004 -0.0238269 
546 1 48.315 6.74335 29.1521 0.0175038 -0.0190337 -0.0408689 
554 1 49.3568 5.5416 24.3034 -0.0186107 -0.0101846 0.00779755 
557 1 48.0774 6.33399 24.2332 0.00230122 -0.00185655 0.0274877 
543 1 48.5422 6.94636 26.5279 -0.0155168 0.0098669 -0.0105812 
572 2 50.1664 6.25988 32.4656 -0.0553501 -0.0480046 -0.0576479 
556 1 52.2205 3.62869 30.5241 0.0255737 -0.00825489 -0.00356883 
568 2 52.9856 2.98189 31.1919 0.0600209 -0.0103154 -0.00142834 
559 1 50.7261 3.87898 30.8271 -0.00054593 -0.00864451 0.00789314 
571 2 50.0428 3.56318 29.8423 0.00302795 0.073489 -0.047328 
550 1 49.7096 5.18571 30.6685 0.025123 0.00118548 0.0116907 
560 1 49.2728 6.18802 31.6719 -0.022772 0.00729265 -0.00871019 
421 2 46.0433 9.13514 30.7369 0.038449 0.0285378 -0.0546946 
564 1 46.7636 8.69504 29.9861 -0.0240192 -0.00996224 0.0253481 
576 2 47.5038 9.2173 29.2865 -0.0757227 0.0661062 -0.027604 
575 2 49.092 8.238 32.0267 0.0504068 -0.00790331 -0.0338873 
563 1 48.8987 7.56569 31.2428 0.00349506 0.0167879 0.00564046 
552 1 47.9343 7.66854 30.3413 0.0111421 0.00899875 0.00663899 
56 1 57.4704 22.9105 -5.66375 -0.00143195 -0.00650987 0.0220812 
48 1 58.0854 24.2935 -5.475 -0.0308188 -0.011056 0.00679682 
72 2 56.5909 23.0745 -6.16075 -0.00424087 -0.0565198 0.0868528 
58 1 58.3531 26.5756 -6.12033 0.00748 0.0163445 0.0200943 
60 1 57.3547 25.3809 -6.35382 -0.00783401 0.0184738 0.00164005 
70 2 56.2915 25.4521 -6.26264 0.0293108 -0.0292437 -0.033862 
68 2 58.2179 20.7258 -5.42836 -0.0531405 -0.0139716 -0.000276926 
499 2 40.8115 17.0443 10.4692 0.0143606 -0.112482 -0.101719 
59 1 58.6476 21.7219 -5.80774 0.0254208 -0.00435526 0.00925797 
50 1 59.0997 25.7751 0.19221 -0.00771028 -0.0159057 0.0121264 
46 1 59.2388 22.1022 -4.27987 -0.00691234 0.0217795 -0.00353756 
40 1 59.2016 23.243 -3.5317 0.00877492 0.0146398 0.0330992 
67 2 59.4958 21.7446 -6.4988 -0.0123818 0.103491 0.108701 
42 1 59.0146 24.4837 -4.4244 0.017843 0.0270592 -0.0281907 
496 2 36.6645 17.2976 10.9154 -0.0314728 -0.0123354 -0.063572 
483 1 38.4223 16.582 11.7645 0.02067 0.00459808 0.00869805 
44 1 60.0455 22.0214 -1.40187 0.0289802 -0.040278 -0.0123388 
47 1 59.5711 26.6721 -5.39135 -0.0126737 0.0166556 0.00583789 
53 1 58.2227 26.3272 0.70976 -0.0326818 0.0115233 -0.0100353 
38 1 59.6948 23.2394 -2.21186 0.00816092 -0.00302644 -0.0173044 
65 2 57.887 27.4041 0.968832 -0.087324 0.0523989 0.00452833 
41 1 59.6999 25.6982 -4.29394 0.0181956 0.00490326 -0.0285596 
484 1 40.6708 17.0143 11.5432 0.00919227 0.0111759 0.000560794 
43 1 60.0233 24.8028 -0.526481 0.0219223 0.0216069 0.0149933 
37 1 59.7271 24.7993 -1.93501 0.0132173 0.0153049 0.0267875 
476 1 39.5861 17.5447 12.2095 -0.0207034 0.0133427 0.00601382 
470 1 40.1351 17.7751 13.6489 0.0197053 0.0089745 -0.0235532 
498 2 36.1043 21.4452 13.3942 -0.00753174 0.0184095 0.0526718 
473 1 41.029 18.0249 15.4457 -0.00200418 0.0108743 -0.0390147 
472 1 41.1598 17.3932 14.2017 -0.00710169 -0.0241354 -0.00438727 
469 1 36.7316 17.7872 13.5179 -0.00179658 0.0103887 -0.0211968 
478 1 42.2702 16.5728 13.7635 0.0115062 -0.00536116 0.00510309 
330 1 42.5336 20.4493 23.9868 0.00298047 -0.00808427 0.0149261 
480 1 42.2608 18.2697 16.3444 -0.0228942 0.00362516 -0.00213614 
481 1 37.0123 16.9986 12.0114 0.0333215 0.0337631 -0.00661377 
493 2 36.0636 15.9952 12.5956 0.0313972 0.0295836 0.00390258 
503 2 42.7498 15.6929 14.2505 0.0258464 0.0713985 0.00645703 
490 1 43.1487 17.1345 16.6134 -0.0139255 0.0182141 -0.0229121 
346 1 45.0574 19.4081 24.5185 0.00915458 0.00188151 0.0167602 
479 1 39.1744 18.3145 14.4732 0.00699353 0.0119586 0.0123618 
474 1 39.7406 18.3705 15.7369 -0.00512156 0.0059711 -0.0204171 
471 1 37.9027 18.6047 13.6388 0.00834696 0.00715336 0.0180491 
497 2 39.399 18.926 16.5617 -0.107828 -0.0176597 0.0842065 
500 2 40.1364 22.0236 15.2181 0.00426382 0.0452898 0.0355529 
501 2 39.3163 22.5965 13.5537 -0.0353106 0.00422631 -0.0956794 
477 1 37.9242 19.9554 14.0393 4.72769e-05 0.0249642 -0.00965027 
488 1 38.8108 21.0148 14.1276 -0.0134021 -0.0150118 0.0101656 
491 1 39.6816 21.9227 14.2329 0.00272593 -0.00179866 0.00689656 
485 1 36.3993 20.3653 13.8462 0.0105433 0.00448324 -0.0138549 
492 1 43.6683 16.5406 17.9396 -0.00141808 0.0129034 -0.000318288 
502 2 43.7141 15.4584 17.332 0.0443269 0.024708 0.0437413 
489 1 43.0288 16.7881 19.051 -0.00953767 0.00601373 -0.00544264 
486 1 42.5826 17.3194 20.0774 -0.0109779 0.00293442 0.00364185 
332 1 39.6367 22.6229 22.8705 -0.0165544 -0.000950337 -0.0171051 
326 1 40.9881 22.0271 22.9933 -0.0216944 0.00405592 0.00435117 
339 1 39.3541 22.9793 21.4587 -0.0147975 -0.0154554 -0.00716787 
340 1 38.7504 22.6881 24.1531 -0.00895685 -0.00132305 0.031536 
351 2 38.4479 23.798 21.8917 -0.0535225 0.0413481 0.0438507 
331 1 41.3132 21.4965 20.537 0.00318874 0.00505152 0.0120491 
352 2 37.7133 22.9774 24.2264 -0.0331996 0.0909224 -0.028333 
337 1 39.8592 21.9002 20.5257 -0.00229056 -0.0121565 -0.00494069 
335 1 44.7899 20.1523 23.3368 -0.0197216 -0.00624105 0.00228635 
216 2 46.7 21.05 22.9314 0.0606346 0.0745125 -0.0286279 
325 1 41.9612 21.6424 21.8018 0.00746722 -0.000372445 0.013437 
333 1 44.1013 21.6823 20.9001 0.0160365 -0.0168001 -0.000996898 
345 1 45.7286 21.0181 22.51 0.018726 -0.00863684 -0.0213737 
354 2 46.0973 21.7671 20.2809 -0.0688873 0.0629429 0.0765818 
327 1 43.3048 21.6751 22.1443 -0.0126812 -0.0018305 -0.0240795 
342 1 45.6848 21.3429 21.2254 0.0232754 0.00673873 -0.0138081 
341 1 43.5007 22.3983 19.6616 -0.0157908 -0.017988 0.00426262 
329 1 43.6183 20.5476 23.1211 0.0071706 -0.00579333 -0.0057421 
338 1 42.1088 22.0866 19.4838 0.00632271 -0.00702386 -0.0415831 
350 2 41.4628 22.495 18.6325 0.0388063 -0.117627 0.0230145 
353 2 44.0321 23.0643 19.0752 -0.0166282 0.0625443 0.0325317 
349 2 39.3515 20.9842 20.3526 -0.0752052 -0.0391462 0.0311749 
343 1 39.2835 21.7494 25.0197 0.00139864 0.0156058 0.00390401 
347 1 41.9726 19.8371 26.6099 -0.0146394 0.000599535 0.00033935 
356 2 40.3481 19.7079 27.6525 0.0651123 0.0312215 0.0535568 
334 1 40.3094 20.9896 25.2244 0.021834 0.00378477 -0.0189755 
344 1 40.6123 20.0682 26.4925 0.000861697 0.0192676 -0.0161295 
328 1 41.2899 21.1473 23.9058 0.000707815 0.0216166 -0.00527388 
358 2 46.0136 19.0458 24.4393 0.00453617 0.0406349 -0.000413088 
359 2 42.3519 19.1781 27.709 -0.0589641 0.0689351 0.0249151 
360 2 43.9307 18.3717 25.9962 0.0458801 -0.0445354 0.083564 
336 1 42.5727 19.7014 25.2314 -0.0119613 -0.0127381 0.0271369 
348 1 43.9799 19.1881 25.2976 0.00112853 0.00272613 -0.0399837 
487 1 41.7424 16.6019 12.4494 0.00162673 -0.011112 -0.00558324 
537 2 73.5687 4.80365 -2.6744 0.0554436 0.0109611 0.0641444 
304 1 70.4556 11.1686 -8.81535 -0.00280067 0.0197869 0.0144638 
307 1 69.3637 10.4126 -9.39428 -0.00922337 -0.0217369 -0.000101463 
316 2 70.717 11.2192 -7.64551 0.0976532 -0.0520714 0.0422845 
292 1 70.4016 10.9952 -11.5466 0.00436279 0.0234725 -0.00610889 
319 2 69.114 9.7953 -8.46803 -0.0188822 0.0442605 0.00782315 
320 2 68.7628 8.01177 -11.476 0.0270736 0.0267 0.00916511 
298 1 69.7064 9.95231 -10.7669 0.0036427 0.0159818 -0.0144629 
431 2 73.809 2.93662 11.0204 -0.0520657 0.0561133 0.0237206 
540 2 73.2327 4.43509 -2.71563 -0.00512519 0.0153966 -0.000245917 
423 2 75.7164 -2.06301 11.079 -0.0215928 -0.0142591 0.00890915 
285 2 66.7754 7.66217 9.29188 0.0667941 0.0711328 0.0435163 
276 1 69.6564 2.78498 11.1458 0.00269712 0.026091 -0.00649594 
288 2 69.7573 1.49838 10.8222 -0.0750718 0.0499083 -0.0102106 
274 1 69.1328 3.61792 10.1893 -0.00891993 -0.00618733 0.0103433 
286 2 68.5582 3.04418 9.28735 0.0162579 -0.120357 -0.00817408 
308 1 69.2922 8.82242 -11.4548 -0.0340328 -0.0189103 0.00427976 
263 1 68.7919 4.88071 10.6157 -0.00368947 -0.0358118 -0.0285217 
415 1 75.897 1.41941 11.6479 -0.00513205 0.0317259 -0.00564439 
424 2 75.5339 -0.037086 10.126 0.0188271 -0.0998669 0.0277987 
412 1 75.9307 0.141051 11.0882 -0.0352745 0.00541006 -0.0217413 
427 2 75.6735 2.05315 10.6832 -0.0403813 -0.00538172 -0.0231723 
281 2 65.6134 9.02749 11.2441 -0.00832898 0.0983429 0.0345684 
419 1 74.5729 3.39814 11.7372 -0.0130107 0.010882 -0.0225022 
273 1 67.9581 5.88358 10.0502 -0.0358632 -0.00322699 -0.00755403 
270 1 67.3884 7.24995 10.3164 0.0222404 -0.00749182 0.00413296 
261 1 67.358 7.73579 11.6338 -0.00769248 -0.00621826 -0.000161889 
290 1 71.2911 11.9133 -10.7175 -0.016738 0.00491753 0.00690702 
411 1 76.4355 -2.05288 11.9699 0.00660307 0.00431156 -0.00255682 
269 1 66.4908 8.66508 12.0645 0.0219928 -0.00752395 0.0157006 
405 1 80.029 -0.724631 15.5935 0.0231822 -0.01397 0.0356507 
410 1 79.4494 -2.95176 14.3061 -0.0197323 0.0150801 -0.0217236 
403 1 78.5291 -2.27584 13.5236 -0.0264655 -0.0242329 -0.00786381 
413 1 79.9565 -2.15626 15.413 -0.0273301 -0.00622411 0.00151452 
422 2 79.3189 -4.14734 14.253 -0.0487649 -0.0472845 -0.0617492 
425 2 80.6767 -2.59362 16.1402 0.00495914 -0.0065449 0.00611788 
414 1 81.071 -0.0543503 16.3994 -0.00869646 0.00917712 -0.010086 
397 1 78.0624 -0.934206 13.9932 -0.0208271 -0.00990408 -0.00531876 
399 1 78.7625 -0.170485 15.0533 0.0218594 0.00443617 0.0187637 
409 1 77.6649 -2.75022 12.381 0.0136086 -0.0237557 0.0198017 
275 1 71.065 2.93171 13.4927 0.0137061 -0.01181 0.0184426 
271 1 68.738 3.57389 16.7375 -0.0128795 0.0113524 -0.00341712 
284 2 69.3547 2.86032 17.4057 -0.0448297 -0.00558738 -0.00945773 
272 1 70.3907 2.78216 14.8371 -0.0222503 0.00286651 0.00660162 
262 1 69.4372 3.57416 15.337 0.00444921 -0.00980387 -0.00717636 
256 1 69.3634 4.76269 14.5277 -0.000499111 -0.0279753 0.0243477 
258 1 69.4453 4.6133 12.984 0.00368763 0.00304624 -0.00575643 
287 2 71.4774 2.23259 12.8809 0.0643403 -0.0272034 0.0820611 
264 1 70.2236 3.49023 12.3477 0.0363846 -0.00405143 0.00674651 
268 1 67.6441 4.38723 16.9797 -0.0124173 0.000977467 0.00559784 
254 1 68.4655 5.75907 14.7624 0.00105922 -0.0220594 0.00699805 
416 1 75.6475 3.45484 12.5933 0.0114402 -0.00361429 0.000443783 
428 2 75.5656 4.27947 13.4963 -0.00292889 -0.0167494 0.0309085 
293 1 72.2991 11.2739 34.468 0.0227465 0.0175971 -0.0183363 
406 1 76.2768 2.01737 12.778 -0.00444919 0.0235426 0.0013096 
257 1 68.5151 5.31075 12.2202 -0.00902186 0.0154085 -0.0200995 
400 1 76.8328 1.38955 13.8295 -0.0343049 -0.0187559 0.00741061 
408 1 76.8465 3.16775 15.6606 0.0147452 -0.00480666 0.0075434 
420 1 76.2765 4.45081 15.9877 -0.0240423 0.00813813 -0.027381 
418 1 76.6934 5.72823 16.466 -0.0168598 -0.023958 -0.0152839 
430 2 77.2946 6.23688 15.5912 0.00682365 -0.033582 -0.0705961 
398 1 77.0639 0.0429286 13.3688 -0.000185368 -0.0317135 -0.0107619 
402 1 77.3333 1.95683 15.1577 0.0272577 -0.0277419 0.00657823 
401 1 78.2232 1.05827 15.8219 -0.0149332 -0.0213287 0.00038955 
407 1 78.781 1.47087 17.0346 -0.00669301 0.0486885 -0.00429334 
429 2 78.9314 2.44634 17.6048 -0.146223 -0.051514 -0.0129552 
277 2 65.804 8.50151 15.4728 -0.0657675 -0.0543711 -0.0516732 
266 1 66.5734 9.00157 13.5969 -0.0117082 -0.00609576 0.0278738 
278 2 65.6455 9.50059 14.2058 0.0781925 -0.0341563 0.0234768 
265 1 66.1096 7.50109 15.4652 0.0156668 -0.00237748 0.00344622 
259 1 66.7871 7.62752 14.2347 0.00594043 -0.00414703 -0.0253976 
267 1 66.3472 6.22838 15.9834 -0.00670767 -0.00458686 0.00736102 
279 2 65.3722 6.05785 16.662 -0.0272623 -0.0965624 -0.0510712 
253 1 68.054 6.8515 13.8856 0.0193367 -0.00538899 -0.0263097 
260 1 67.5954 5.48343 16.0167 0.0309735 0.0147177 0.0224747 
255 1 68.0789 6.58548 12.3849 0.009722 -0.00556169 0.0167762 
299 1 74.2675 10.9717 33.3336 -0.0112826 0.036129 0.00301221 
322 2 72.5307 9.72567 32.6583 0.0123144 -0.0221055 -0.0153701 
280 2 67.0378 4.00403 17.8354 0.00919859 -0.0347055 -0.00752924 
432 2 76.7094 5.67812 17.5679 0.021235 -0.0178076 -0.130279 
426 2 80.2739 1.51432 17.9657 -0.0975614 0.0359568 0.00928686 
417 1 80.0921 0.68285 17.3443 0.0171418 0.00978549 -0.00706853 
318 2 77.0903 10.7987 34.6581 -0.0568418 -0.0333707 -0.0501525 
309 1 76.1387 11.2437 34.1528 -4.43242e-05 0.0158917 -0.00636397 
324 2 69.5615 8.34723 32.483 0.0320064 -0.0341643 0.0684838 
321 2 69.4826 10.2322 32.5278 -0.0238002 0.0700985 0.0636655 
164 1 83.6043 10.9481 26.9082 -0.00191878 -0.0156067 0.00292879 
311 1 70.096 8.56776 35.2525 -0.00205519 -0.018174 0.0179626 
323 2 69.8497 7.47189 35.1504 -0.0289726 -0.0525068 -0.069789 
300 1 70.1508 9.53555 34.3645 -0.0173366 0.00378968 0.0128646 
294 1 71.0442 10.7287 35.046 -0.00476623 -0.0306095 0.00549975 
312 1 69.4767 9.26813 33.0834 -0.0242083 -0.0392566 0.0120857 
404 1 76.3971 -0.681102 12.3001 -0.0124448 0.0181315 0.00812812 
310 1 72.9452 10.6618 33.488 -0.01665 -0.0210697 -0.008407 
303 1 72.507 12.7065 -8.46817 0.0102454 0.0117677 -0.00236851 
51 1 60.3676 22.4325 -0.297196 -0.00971543 -0.00861145 -0.0367795 
313 2 74.5639 13.3618 -9.05454 -0.0370174 0.0127474 0.0208774 
301 1 73.5694 13.4401 -9.09405 0.0133812 -0.00295489 0.00803336 
295 1 73.4878 13.4739 -10.5455 0.0134185 -0.0181724 -0.00102291 
289 1 72.4055 12.5945 -11.3563 0.00386354 -0.00485484 -0.0132602 
302 1 74.603 14.3431 -10.9937 0.0292586 -0.0073457 -0.0137391 
314 2 75.1689 14.7569 -10.3587 -0.00935159 -0.0563322 -0.0552908 
244 2 77.8023 33.7024 6.33049 0.0159866 0.0489626 -0.00816875 
231 1 78.2241 31.7326 8.06813 0.000256199 0.000991663 -0.0115144 
66 2 61.9583 26.5363 -5.88622 -0.0413894 -0.00475446 -0.021175 
105 2 75.061 30.744 -9.88262 -0.045857 -0.00261988 -0.0121464 
54 1 62.1256 27.2917 -4.21976 0.00140317 0.00764254 0.00323152 
57 1 61.105 27.2205 -5.26868 -0.00282812 0.0112663 -0.00295519 
45 1 61.2089 26.9139 -3.02613 0.0169478 -0.0097108 0.00518029 
61 2 60.4728 24.1428 1.1159 0.0416924 0.0139418 -0.0106795 
62 2 61.2447 27.8834 -2.64299 0.0908707 0.00734469 0.0501191 
69 2 63.3463 27.3558 -4.33232 -0.00225547 0.0624562 0.0814521 
243 2 78.9634 32.5442 8.15493 -0.0250797 0.0223738 -0.0652215 
241 2 79.389 31.0122 9.73496 0.0828215 0.0758812 0.00818589 
49 1 60.2506 23.6207 0.285864 -0.00157632 -0.0184427 -0.0204518 
296 1 71.3712 12.1325 -9.17006 -0.00603388 -0.0318658 -0.00862135 
357 2 75.1407 26.4807 2.52794 -0.0149281 0.027119 0.0827749 
240 1 75.7639 26.2307 3.39624 -0.0139435 0.00613884 -0.00613222 
252 2 76.556 25.4927 3.45297 -0.0867384 -0.0442573 -0.0254891 
228 1 73.3647 30.2056 4.57135 -0.021772 -0.0278836 0.0119869 
248 2 72.2432 30.0712 4.32542 0.0182654 0.0184034 -0.0252328 
238 1 75.5131 26.5883 4.55938 -0.00558794 -0.00303376 -0.0360044 
239 1 73.3853 31.4668 4.12319 0.0146993 0.0181713 0.0195704 
236 1 74.2887 32.3904 4.02872 -0.00695843 0.00424367 -0.0278885 
247 2 76.5676 32.9037 4.05588 0.085531 -0.0177562 -0.00542877 
251 2 74.2197 33.4865 3.39283 0.0339575 0.0282482 0.0506132 
226 1 75.1731 31.8297 5.03562 -0.0243592 0.00824548 0.0189313 
235 1 76.4504 32.5675 5.12506 0.00655026 0.0169342 -0.0161804 
249 2 74.5495 24.8988 5.91113 0.0948262 -0.0753853 -0.0420019 
245 2 76.8437 26.8719 9.97917 -0.0724467 -0.00280948 -0.0405352 
230 1 77.4999 28.7304 9.93251 0.0194349 0.0119648 0.0163265 
233 1 76.3481 27.8279 9.67611 0.0060929 0.00935917 -0.00957676 
246 2 74.848 25.3624 8.89018 -0.031944 0.0239955 -0.034484 
237 1 75.128 25.6621 6.9709 -0.0124387 -0.0188418 -0.0051598 
223 1 77.6898 29.6278 8.76416 0.0131104 0.0109739 0.000124078 
234 1 75.3083 26.0241 8.23403 0.000475209 -0.00147637 -0.00720974 
219 1 75.4217 28.5792 7.779 -0.0148735 0.00750338 0.00453716 
217 1 76.4598 29.4593 7.90983 0.00452421 0.0197208 -0.0181899 
221 1 74.7617 28.2554 6.30782 0.0116372 0.0293964 0.00114616 
225 1 75.6797 27.5082 8.5082 -0.00364566 0.00471961 0.00875176 