ITEM: TIMESTEP
1020000
ITEM: NUMBER OF ATOMS
576
ITEM: BOX BOUNDS pp pp pp
-1.2000000000000000e+01 8.4000000000000000e+01
-1.2000000000000000e+01 3.6000000000000000e+01
-1.2000000000000000e+01 3.6000000000000000e+01
ITEM: ATOMS id type x y z vx vy vz 
251 2 7.96718 -5.7068 -5.58628 0.0395042 -0.0136221 -0.020607 
238 1 4.45971 -0.859775 -6.37655 -0.017281 0.0140812 0.0283183 
357 2 3.84582 -0.54258 -7.0973 -0.0557943 -0.126978 0.0807856 
240 1 5.11757 -2.0956 -6.66702 0.00664519 0.0246685 0.00993922 
252 2 5.58254 -1.92511 -7.76371 -0.0357029 -0.163768 0.0776822 
388 2 6.63502 -4.22608 -7.51372 -0.0609357 0.0491377 -0.0798834 
236 1 6.45627 -4.37995 -6.42624 -0.0118294 -0.000425449 -0.00170231 
228 1 5.96452 -3.10318 -5.81662 -0.0180089 -0.00157385 0.00521888 
247 2 6.97122 -6.83999 -2.68831 0.00815306 0.0752063 -0.056964 
237 1 3.77765 0.871443 -4.1311 0.00981797 0.00818551 0.0150933 
227 1 4.47096 -0.218368 -4.90993 0.0266234 0.0202704 -0.00914895 
234 1 3.72048 0.719361 -2.65141 0.0132941 -0.00386629 -0.0361027 
225 1 4.35694 -0.469866 -2.10167 -0.0100118 -0.0127754 0.0177141 
230 1 5.29953 -0.108926 -0.883021 0.026683 0.0192103 0.0223596 
223 1 6.47777 -1.24333 -1.046 0.0215618 0.034971 -0.0116935 
217 1 6.21262 -1.97708 -2.1278 0.0140792 0.0219889 -0.0133623 
219 1 4.8419 -1.64974 -2.80743 -0.0168131 0.0142299 -0.0105624 
221 1 4.95267 -1.42505 -4.21828 -0.0210256 0.0177085 0.0148492 
218 1 6.02161 -3.28509 -2.26482 0.00351003 -0.00621143 0.00269689 
244 2 8.06205 -5.44206 -1.06407 -0.00427257 -0.0189093 0.0262692 
224 1 7.27275 -3.82596 -1.43395 -0.00528544 -0.0196456 -0.00568029 
232 1 7.35905 -5.1363 -1.73048 0.0169627 0.0136268 -0.010531 
220 1 5.75351 -3.69678 -3.72554 -0.00666256 0.00223066 0.0173446 
235 1 7.0066 -5.81689 -2.97301 -0.0112311 -0.0125876 0.00356617 
226 1 6.66026 -4.77192 -4.01731 0.00709493 0.00435012 -0.038139 
239 1 7.15426 -5.00404 -5.43934 0.0206912 -0.00537571 0.000180592 
222 1 5.82759 -2.65713 -4.54503 -0.00938436 -0.0101237 0.0206888 
249 2 3.55573 1.82548 -4.64009 -0.0255235 -0.0285176 -0.0351964 
233 1 4.99789 -0.395857 0.621947 0.00164315 0.012769 0.0256973 
246 2 3.62699 1.59892 -1.93613 -0.0294656 -0.0428147 -0.00458458 
245 2 5.84847 -0.0788813 1.33254 0.00463139 -0.110477 0.0743568 
242 2 4.12786 -0.943714 0.923896 0.0376243 0.0551311 0.0160763 
229 1 7.31647 -1.8977 -0.0531775 -0.00165327 -0.0032996 -0.0309445 
241 2 8.33622 -1.77419 0.637411 0.00982222 0.0268317 0.023407 
243 2 8.85777 -3.71791 -0.276997 0.0300642 0.0229858 0.00639812 
231 1 8.10371 -2.99134 -0.64241 -0.0104209 -0.0173136 0.00489046 
137 2 -8.58446 10.9307 3.21733 -0.0335889 0.0602333 0.0239167 
303 1 -9.30861 -10.136 14.033 0.000541283 -0.00295736 0.0242994 
304 1 -11.4763 -9.53423 15.3737 -0.00187571 0.0119771 -0.00443739 
296 1 -10.6032 -10.3971 15.098 -0.00483853 0.00235274 -0.0240909 
316 2 -9.55182 -9.89289 13.1918 -0.0567609 0.0323899 -0.0155949 
290 1 -11.1851 -11.6371 15.5955 0.00940811 0.00513789 0.00397217 
313 2 -8.72351 -9.33663 14.6984 -0.0539665 -0.0508916 0.0227222 
301 1 -8.37478 -11.2011 14.2793 -0.0186964 0.012988 -0.0288696 
554 1 -1.64703 11.7079 21.492 -0.000402003 0.0337024 -1.0091e-05 
315 2 -7.71087 -11.7849 13.5128 0.00257869 -0.0778335 -0.0341627 
566 2 -3.33717 8.74594 22.0352 0.0627417 0.00589721 -0.0136285 
549 1 -2.84797 9.94692 22.1759 -0.00648989 -0.0253731 0.0223647 
558 1 -3.01568 10.3993 23.2225 -0.0189522 -0.00691764 -0.0313025 
557 1 -2.13829 10.6117 20.8804 -0.0154133 -0.00570662 0.00688711 
432 2 -1.56537 9.90446 20.2552 -0.0623781 -0.0230812 -0.0442555 
14 1 6.2593 11.8311 18.2782 0.00282311 -0.00443504 -0.00108308 
422 2 5.89557 10.7217 19.716 0.00420529 -0.0331203 0.022999 
413 1 6.76955 11.3935 19.3767 0.0107024 0.00620873 -0.0248871 
398 1 11.1724 10.1894 19.7888 -0.00254833 -0.010299 0.00588624 
409 1 9.0769 9.0489 18.57 0.00982122 0.0217757 0.00854785 
415 1 11.8305 11.5609 20.1629 0.00731655 0.00675475 -0.0149786 
403 1 7.81263 10.9352 20.5168 -0.00698416 0.00923668 -0.0113174 
397 1 8.80478 10.1299 19.7748 -0.00304903 0.0174147 -0.00729925 
429 2 7.91351 10.2231 22.7194 0.00812006 0.114965 0.0304869 
545 1 -5.00722 11.9773 26.0318 0.0125668 0.00175503 -0.0154527 
404 1 11.2665 8.91124 19.2234 0.0199612 0.00277767 0.0215493 
421 2 -6.55744 11.0913 25.2709 -0.0265363 -0.0466192 0.119454 
17 1 9.91229 10.4867 20.0084 0.0111204 -0.0174567 0.0070196 
423 2 8.88195 9.27734 17.5425 -0.0658587 -0.0377273 -0.0183107 
427 2 9.76138 6.96283 19.4402 0.046121 -0.0493663 0.0218984 
411 1 9.94333 7.95098 19.151 0.0261808 0.0290112 0.0021935 
417 1 7.78215 11.1408 21.9084 -0.00281692 -0.0271533 0.000488915 
561 1 -2.67193 11.156 24.5281 0.00882941 0.0256244 -0.00623086 
546 1 -1.4012 11.2879 25.336 -0.0182142 -0.00261787 0.000203731 
551 1 -3.93865 11.7293 25.0769 -0.0121865 -0.0268243 0.0412052 
559 1 1.48448 11.7854 25.7125 -0.0277996 -0.0176529 -0.0235061 
395 2 -10.2414 24.8638 4.49075 0.0258904 -0.03917 -0.0287916 
380 1 -11.3369 24.7708 4.74328 -0.0184737 0.0039195 -0.0258272 
383 1 -11.5222 25.2645 6.23703 -0.015374 -0.0193139 -0.005732 
317 2 -6.145 33.466 10.8451 0.0398753 0.057867 0.0751184 
145 1 -7.67449 25.2911 11.1701 -0.00245617 0.00572916 0.000755662 
174 2 -6.19893 20.9616 11.0342 -0.0433835 -0.0281642 -0.0878258 
147 1 -8.02409 24.0053 11.3914 0.00589463 -0.0207225 0.00229257 
471 1 -11.6256 17.5158 11.3581 -0.00777339 0.000216588 -0.0114402 
30 2 -4.51168 16.3823 10.6026 -0.0163016 -0.0906412 -0.0284418 
21 1 -4.86962 15.9518 11.7233 -0.00380854 0.0196642 -0.0059904 
309 1 -6.91795 33.4185 11.512 0.018075 -0.0214383 -0.00493184 
158 1 -5.26311 25.0964 10.6474 0.00481904 -0.0310549 -0.029388 
469 1 -10.2806 17.7741 11.3237 -0.00661234 -0.0307398 0.00815373 
162 1 -6.99933 21.519 11.5075 0.010944 -0.00292914 -0.00563049 
153 1 -6.87239 22.9599 11.1068 1.16901e-05 0.0103648 -0.00920376 
391 2 -11.3825 23.7868 2.31387 -0.0451466 -0.0394075 -0.0474186 
151 1 -6.52987 25.7056 10.2766 -0.00396521 -0.0170444 -0.00391442 
173 2 -4.98744 22.8045 10.3602 0.00145854 -0.00755137 -0.0272351 
148 1 -10.2311 25.6458 11.7706 0.00810834 -0.00496817 0.00752838 
392 2 -10.7038 25.855 6.90692 -0.0905494 0.0690053 -0.0211336 
146 1 -8.78471 26.2665 11.5128 -0.00186077 -0.022217 -0.0244199 
154 1 -11.3334 26.3647 11.4427 -0.0245313 0.00944588 0.00848923 
26 2 -7.38518 15.7794 11.5193 -0.0958903 0.0051108 0.0575688 
396 2 -11.9127 26.2809 8.17688 -0.072158 0.0110103 -0.0742536 
165 1 -8.32903 20.8958 11.5893 0.00232702 -0.00573448 -0.00763891 
171 2 -6.06365 27.6246 9.85369 -0.0419099 0.0188442 -0.122395 
160 1 -10.6702 27.6773 11.265 0.0137403 -0.00684869 -0.00168168 
157 1 -7.06372 27.3152 10.1341 0.0062237 -0.0129621 -0.0220942 
152 1 -9.30024 27.4422 10.8045 -0.0287469 0.0153812 -0.0064204 
159 1 -7.96144 28.1945 10.6563 0.0149288 0.00667054 0.000413019 
169 2 -7.30073 28.9566 10.9801 0.0698013 -0.0545376 -0.000325706 
161 1 -5.73378 23.6445 10.7016 0.00360097 -0.0102699 -0.00614432 
176 2 10.7169 34.4049 -11.4972 0.0281201 0.0335937 -0.019292 
297 1 -7.71767 33.4372 11.8353 0.022671 0.0112467 -0.0103274 
149 1 -9.23086 23.4341 11.8995 -0.0124284 -0.00420221 -0.00210151 
19 1 -6.66206 16.2709 18.4693 0.0095989 -0.00458546 0.00504313 
16 1 -7.97105 16.207 18.137 -0.00310253 0.0233634 0.0180168 
1 1 -8.48711 16.6679 16.742 -0.0115118 0.00695691 0.0239941 
28 2 -8.98393 15.9967 18.3753 0.0863992 -0.0780666 -0.0567237 
2 1 -7.62447 16.8062 15.7431 0.000159721 -0.00652921 0.00720809 
3 1 -7.77489 16.7402 14.0568 -0.025968 -0.00155085 0.00334331 
8 1 -9.91348 16.7701 17.0146 -0.0141894 0.0239416 0.00319369 
15 1 -10.3457 17.0945 14.6178 -0.0108175 0.0469963 0.00792343 
13 1 -9.1976 16.7869 13.7164 -0.0093381 0.0240343 -0.0302362 
25 2 -10.1105 17.3928 17.9564 0.0166537 0.0205968 -0.0625408 
7 1 -10.7897 16.4663 15.9003 -0.0247942 0.0188371 0.00739585 
27 2 -11.8687 16.2128 15.8258 -0.0250075 -0.0258862 -0.0191583 
9 1 -6.60048 16.0715 13.367 -0.0220425 -0.0103791 0.034409 
12 1 -3.75281 16.2388 15.773 -0.0220262 -0.00260525 -0.00939184 
36 2 -2.92224 15.5559 18.301 0.0508782 0.0392776 -0.046328 
10 1 -5.81386 17.033 17.456 -0.0216766 -0.00247949 0.0175657 
4 1 -6.34537 17.0547 16.0429 0.00776713 -0.00848445 0.0134 
20 1 -4.27084 16.6921 18.1085 0.00940791 0.0108653 0.0390436 
23 1 -3.49129 15.9668 17.3073 0.00491307 0.0213042 0.016088 
24 1 -2.70665 15.9166 14.8757 -0.0138094 -0.0154697 0.0103495 
6 1 -5.13688 16.6377 15.2365 0.00908514 0.0186072 0.0183947 
5 1 -5.21684 16.6661 13.9312 0.0134914 -0.00581721 0.00145003 
22 1 -2.86634 16.3943 13.3057 0.000574519 0.0219517 -0.00545803 
11 1 -4.27804 16.4801 13.066 0.0147263 0.0177725 -0.0135362 
29 2 5.33325 13.3345 16.7931 0.00975121 0.0447764 -0.0490648 
481 1 -9.40204 18.6243 12.4382 0.01353 0.0120094 -0.0166759 
568 2 2.99279 12.335 24.574 -0.0578617 -0.00688366 0.029531 
426 2 10.7908 14.1565 17.9998 0.018287 0.00270172 0.0545281 
571 2 1.14091 14.3141 26.799 -0.0941554 -0.00539943 0.0352912 
484 1 -9.94173 21.1765 13.0677 0.0302286 0.028673 0.0131126 
175 2 -11.1471 24.392 12.9125 0.0337335 0.0441368 0.0847853 
476 1 -10.3454 19.7864 12.94 -0.0160376 0.00591459 0.0287542 
155 1 -9.13453 21.8148 12.1365 0.0121429 -0.00334521 -0.00529154 
499 2 -11.1344 22.9678 14.3319 0.00587399 0.0245181 -0.0885274 
487 1 -10.9696 21.8535 14.088 -0.0118551 -0.0019244 -0.0263315 
556 1 1.73899 12.5282 24.4545 -0.00395093 0.00658251 -0.000534873 
248 2 10.0615 34.0636 35.9732 0.0661289 0.0241833 0.0910029 
573 2 -4.61916 12.2409 26.9596 0.0594426 0.0216392 0.0933209 
295 1 -8.98491 35.5236 14.5333 0.00589673 -0.00432552 0.0157269 
302 1 -8.95177 34.5206 13.5941 0.000105638 0.029464 0.00623174 
289 1 -10.2504 35.318 15.4085 -0.00121752 -0.00228378 0.0120095 
305 1 -9.05371 33.4414 12.8327 0.0255158 0.00451915 0.00495176 
291 1 -9.58441 34.7599 16.5427 -0.00895578 -0.0178356 -0.0206901 
35 2 -9.82814 32.7774 13.0126 -0.0588095 -0.0351823 -0.027221 
31 2 -6.51053 15.82 19.5374 -0.0403054 -0.0338209 0.0365861 
564 1 -6.29929 12.0615 25.3068 -0.00695777 -0.000127734 0.00905308 
493 2 -7.20444 19.5174 12.6643 0.0857899 -0.0615671 -0.0195689 
32 2 -4.10002 16.2304 19.1684 0.076273 0.0366032 -0.115402 
299 1 -11.8271 29.6999 12.4997 -0.0153162 0.0189964 0.00663186 
541 1 -1.63016 13.4914 23.4102 -0.0116781 0.0147978 -0.0141094 
569 2 -3.91082 13.9095 24.3082 0.0499395 0.039217 -0.0262341 
543 1 -2.84145 14.186 24.1661 -0.0123394 0.0123531 0.00697666 
547 1 -1.40312 13.0077 21.9388 -0.00308631 0.000664993 0.00361614 
565 2 -0.599675 14.8954 20.8944 -0.0433145 -0.0332535 -0.120059 
555 1 0.704445 12.7914 23.2897 -0.00393952 -0.0115724 0.0104683 
548 1 0.92102 13.8811 22.2206 0.003161 -0.00827857 -0.000931099 
553 1 -0.172704 13.8316 21.3517 -0.0122636 -0.00282395 0.0144905 
567 2 1.7182 14.5608 22.0308 0.00868946 0.109091 -0.00624433 
410 1 5.66938 12.4917 17.213 -0.00243771 -0.00563801 0.00842048 
401 1 9.28305 14.5091 19.4144 -0.0161958 -0.00571592 0.02499 
408 1 10.5139 14.8863 19.8375 0.00182871 0.0299886 -0.00196051 
402 1 11.3577 14.1105 18.9629 0.0178438 -0.0160261 0.018725 
400 1 11.4936 12.8039 19.4705 0.00829246 -0.0104005 0.0166823 
399 1 8.52336 14.3509 20.3242 -0.0108196 -0.0104361 0.0157952 
405 1 8.88683 15.1409 22.7256 -0.0166621 0.0204427 0.00213293 
430 2 8.74695 15.6647 23.7257 -0.0730092 0.0208395 0.0390798 
414 1 8.14032 13.9676 21.899 0.0106829 0.0295903 0.00347934 
420 1 10.2791 14.6901 22.5459 0.0100049 -0.0141189 0.0292965 
407 1 8.00218 12.468 22.3065 0.0119152 -0.0148518 0.0338133 
418 1 10.9116 14.8745 21.3113 -0.0263993 -0.00923196 0.00470762 
306 1 -8.73832 33.0179 18.5547 0.0169268 0.0065953 -0.0028232 
310 1 -9.25438 33.9878 17.7166 0.00642638 -0.0142686 -0.0105298 
322 2 -8.2731 32.5862 19.508 -0.111002 -0.0647448 0.0350566 
532 2 -5.35201 13.8144 24.6812 -0.0618087 0.0681004 0.128007 
562 1 -6.20302 12.9906 24.301 0.029509 -0.0384512 -0.0043016 
576 2 -6.5531 12.9859 23.3395 0.00807213 -0.0950688 0.0807493 
136 2 11.0074 14.8468 23.3714 0.0140532 -0.0270736 -0.106101 
150 1 -10.2191 24.2231 12.303 0.0311229 -0.0213821 -0.0058377 
544 1 -0.749224 12.6211 25.5345 0.00226309 0.0209743 -0.0137216 
563 1 -3.82586 16.3863 26.9275 -0.00646672 0.0102622 -0.000790039 
572 2 -3.31578 17.5807 27.0281 -0.030615 0.00879976 -0.130808 
552 1 -3.5041 15.6615 26.0813 0.013177 -0.0309078 0.00621418 
542 1 -0.418566 13.1141 24.0987 0.0139829 -0.00662472 -0.0228627 
177 2 -4.57483 15.9969 27.616 0.0252427 0.0351852 -0.039708 
560 1 -2.69726 15.129 25.0887 -0.0138973 -0.00749515 0.00326564 
34 2 -1.9288 16.3782 12.6252 0.0435225 -0.0132528 -0.003624 
550 1 0.602929 12.9294 26.2502 0.0262331 -0.0238593 0.00232048 
483 1 -8.1259 19.4558 12.0751 -0.0173242 0.0101503 0.00359978 
470 1 -11.7453 19.632 12.9104 -0.0179749 0.00170222 -0.00631876 
64 2 11.411 28.8004 25.3744 0.0113481 -0.0942384 0.0412144 
18 1 -6.26185 15.5961 12.0931 -0.00357148 0.034529 0.0105791 
163 1 -11.2045 28.8396 12.0384 0.00785559 0.0065768 -0.00665475 
283 2 30.0099 -2.8815 -11.2703 -0.084753 -0.0265255 0.0465731 
278 2 30.6116 -3.27455 -11.4755 -0.0447463 0.0356497 -0.0364506 
504 2 31.9382 -10.0292 -4.63793 0.0564244 0.0674019 -0.0717688 
71 2 31.348 -10.2088 -3.83698 -0.0445791 -0.0374936 -0.00635454 
214 2 35.812 4.21912 11.2385 -0.0341569 0.00131773 0.000774171 
424 2 13.0149 9.56782 18.9896 -0.111385 0.0362636 -0.000961052 
209 2 34.3762 2.60413 15.4902 -0.0981891 -0.0636253 0.0953368 
197 1 35.4389 2.8686 15.3517 -0.00478591 0.00712924 0.0124786 
198 1 35.835 4.2494 13.1186 0.0147367 -0.0183381 -0.00954386 
419 1 13.2186 6.6607 16.8757 0.00649665 -0.0214992 -0.0160878 
428 2 14.7636 7.42114 18.5251 -0.0340734 0.0297083 -0.0218783 
416 1 14.0151 6.92861 17.9442 0.0153975 -0.0149824 0.00627627 
133 2 34.7874 4.48214 12.8643 0.0276464 0.0226213 0.0468436 
406 1 12.6454 7.48648 17.9364 0.0144897 -0.0104991 -2.13192e-05 
105 2 26.2114 9.38228 17.0604 -0.0327868 -0.0357832 0.106043 
466 2 26.8531 9.09909 17.2446 0.0405567 0.00322243 0.0181964 
431 2 13.3097 5.90067 16.2167 0.0191451 -0.0221284 -0.106094 
206 2 35.2557 3.10006 17.4313 0.0100268 -0.0378187 0.0541231 
412 1 12.5415 8.7374 18.8397 0.0329593 0.0383036 0.00514864 
353 2 36.0928 11.3596 17.6564 0.0476474 0.00557492 0.0373563 
341 1 35.9492 11.6543 16.6882 -0.00189498 -0.0184198 0.0190628 
425 2 12.4076 11.4807 21.097 0.073266 -0.0622735 -0.0772675 
497 2 30.5881 15.665 -8.66111 -0.0137942 -0.00289954 0.0308267 
98 2 27.8343 16.7443 8.32173 0.0338957 0.0230616 0.0107184 
68 2 34.4397 15.0717 10.0268 -0.0267046 -0.0118674 -0.0602628 
340 1 35.8669 13.693 10.644 0.0251287 0.00329482 0.0192789 
539 2 26.0688 34.0346 -3.38644 0.0583628 -0.0494711 -0.0916642 
344 1 32.5929 15.0385 11.695 0.0386858 -0.00942748 0.0049288 
343 1 34.6495 14.213 10.8256 -0.00458093 -0.0116601 -0.000900812 
356 2 32.5522 15.6222 10.8733 0.0836439 -0.0907506 0.0684197 
503 2 22.6289 15.5207 10.5342 -0.0151879 0.066607 0.00871039 
179 2 26.3801 35.0717 -3.48018 -0.0131412 -0.0782573 0.0703739 
354 2 35.5573 13.1346 18.5427 0.0283187 -0.0345583 0.0115997 
347 1 31.7136 15.4217 12.8158 0.0102797 0.000322881 -0.0145212 
329 1 33.8652 14.1813 15.5581 -0.0145399 -0.0135304 0.0055491 
327 1 35.0838 13.6509 15.3998 0.00269978 -0.0125501 0.00489617 
330 1 33.2972 14.3952 14.393 0.0092977 -0.00875776 0.00382128 
333 1 35.3844 12.8278 16.5582 0.0234157 0.00165213 -0.0184931 
328 1 34.0702 14.0216 13.1965 0.0146918 -0.00788457 0.00832468 
325 1 35.4588 12.8066 14.2779 0.00954114 -0.00847048 0.00091336 
326 1 35.0978 13.2747 12.978 -0.0028322 0.000269072 -0.0141788 
359 2 30.6644 15.6484 12.437 -0.01152 -0.0703825 -0.0332081 
336 1 32.08 14.8286 14.2457 -0.0203868 0.00957066 0.00732232 
335 1 32.929 14.0591 16.6174 -0.0210625 -0.0119388 0.00089462 
345 1 33.3288 13.7466 18.0378 0.0149925 0.0036477 0.0227821 
348 1 31.4643 15.2505 15.527 -0.0195425 -0.00657674 -0.00735489 
346 1 31.8701 14.9634 16.7533 -0.00625392 -0.0233112 -0.0150025 
358 2 31.1063 15.6677 17.3539 -0.0181209 -0.0834872 0.0856309 
360 2 30.9085 16.1615 15.6298 0.0160386 0.0467417 0.00758303 
170 2 11.7175 29.1815 25.8723 -0.0959648 -0.105531 -0.0696145 
570 2 24.2514 24.8298 17.8317 -0.00588458 -0.0393108 0.0361943 
385 2 23.6879 24.7127 17.4 0.0573775 0.0264391 0.0345466 
250 2 12.0456 14.4898 21.4296 -0.068769 -0.0209909 0.0262186 
216 2 32.6781 13.5831 18.7832 -0.0211891 -0.0471515 -0.0120245 
342 1 34.7063 13.6224 17.8844 -0.00557317 -0.011987 0.0209834 
334 1 34.0331 14.7851 12.0471 -0.00737769 0.00901819 0.00445251 
213 2 38.5569 4.21678 10.8456 0.0535372 -0.0335362 -0.0351542 
134 2 52.1164 -2.84985 -6.69601 0.0354789 -0.0398395 -0.0561732 
122 1 52.98 -2.39741 -6.93123 0.020395 0.00469158 -0.0123269 
125 1 53.9812 -2.62506 -7.49564 0.000629895 0.0013097 -0.0273538 
129 1 56.4536 -4.84531 -9.85387 0.014583 0.0100367 -0.00512507 
117 1 54.8587 -3.10873 -8.50355 0.00115037 -0.0088369 0.0255239 
138 2 54.8184 -4.9651 -8.21917 -0.164667 0.0394689 0.0162586 
126 1 55.2259 -4.40203 -9.1478 0.00695999 -0.0210173 -0.00355948 
119 1 56.8722 -3.8765 -10.8459 0.0203078 0.0137447 -0.00952186 
111 1 55.3816 -2.18818 -9.46963 -0.0234304 -0.0266964 0.00833541 
109 1 55.5744 -0.551012 -9.17407 0.00157176 0.0143506 -0.0141526 
113 1 56.3809 -2.49767 -10.4048 -0.000211273 -0.000776326 0.00330335 
130 1 58.1752 -4.07854 -11.663 -0.00496272 -0.0208169 -6.45691e-05 
112 1 57.767 -0.532109 -10.2095 -0.00200966 0.0231056 -0.0176243 
114 1 57.6544 -1.8004 -10.7268 -0.00208082 0.0212042 -0.017838 
202 1 40.9495 7.76941 10.8853 0.00808642 0.00634719 -0.00439732 
139 2 53.5064 -0.492676 -9.74565 0.108047 -0.0331004 0.0260162 
141 2 57.0841 -5.82352 -9.67508 0.0218221 0.0924988 0.0475725 
351 2 37.4845 11.5933 11.3123 -0.0262098 0.07531 -0.158999 
116 1 56.7898 1.63503 -8.95935 0.0140121 0.0374693 0.0040574 
121 1 54.4496 1.43906 -8.9188 -0.00523744 -0.00526521 -0.00710765 
115 1 54.2947 0.0699996 -9.20415 -0.0344989 -0.0101033 0.0135518 
123 1 55.5282 2.38936 -8.70316 -0.0105126 0.0168216 0.034898 
496 2 55.896 3.18362 -8.08974 0.0162731 0.000632877 -0.00390971 
110 1 56.794 0.213166 -9.15272 -0.0393504 0.00402862 0.0083703 
124 1 58.0491 2.45549 -9.41405 -0.0232895 -0.0203645 -0.00201112 
118 1 58.1679 0.536958 -11.1478 -0.0287813 0.00854297 -0.0014406 
205 2 58.2672 3.45247 -9.1915 0.0423664 -0.0198253 -0.000901483 
127 1 58.6 1.88343 -10.6996 -0.018704 -0.0101013 0.0117404 
204 1 41.1446 8.82297 10.1217 -0.0228684 0.0169332 -0.0177675 
212 2 41.8466 9.02938 9.22658 -0.0541985 0.0296082 -0.0338588 
192 1 40.6613 6.58917 11.5477 0.00226691 -0.00517447 0.0157916 
182 1 39.4463 4.50916 15.8002 0.0332285 0.00601691 0.00716947 
196 1 41.547 4.57958 16.684 0.00061658 -0.00633009 0.00194594 
188 1 40.3227 4.23295 16.9629 0.00263926 0.0171557 0.0167581 
181 1 38.1804 3.78093 15.5892 0.00525105 -0.0214741 0.00767975 
184 1 40.2978 4.80919 14.6862 0.020264 -0.0222848 0.0270042 
195 1 39.6564 3.53601 18.2213 0.00729023 0.00211155 -0.0242584 
190 1 41.8139 4.9309 14.4412 -0.00554518 -0.000712054 -0.0062005 
186 1 39.8911 4.81985 13.3259 0.0201701 -0.0212038 0.00860989 
189 1 36.2117 3.40994 14.2877 0.000926425 -0.00989622 0.00141325 
183 1 37.7431 3.60354 14.3823 0.0434504 0.00164646 0.0172667 
187 1 37.4785 2.94286 16.7354 0.00236656 -0.015648 -0.000286004 
193 1 38.3249 2.92294 18.0018 -0.00902027 -0.0200438 0.0178262 
185 1 38.4873 4.24695 13.2203 -0.0292529 0.03056 -0.0156513 
203 1 40.7553 5.26852 12.2508 -0.0161379 -0.00724566 0.0252134 
194 1 35.9603 2.98547 16.7154 -0.0145975 0.00722679 0.00905683 
331 1 36.4051 11.8392 14.596 0.00499451 0.00112568 -0.00443888 
199 1 42.5654 5.00977 15.753 -0.0123806 0.0322658 -0.00381326 
200 1 41.9738 4.92091 13.0433 -0.00269736 0.00722453 0.00344553 
211 2 43.4961 5.182 16.155 -0.0322712 -0.00253848 -0.0230476 
215 2 42.9339 4.70151 12.6303 0.130356 0.0588701 0.0132053 
208 2 37.9005 2.71743 19.0104 -0.0100964 0.0404746 -0.039228 
350 2 37.5679 10.3631 15.951 0.00118416 -0.0184032 -0.0572606 
349 2 38.2449 11.2607 14.0967 -0.0427913 0.0609957 0.0326996 
337 1 37.4056 11.7104 13.4486 0.00346246 0.0118068 -0.0133771 
338 1 36.8339 11.1804 15.6446 -0.0212066 0.0179543 -0.00944148 
339 1 37.0378 11.7419 12.2449 0.000714692 0.00516 0.00208627 
207 2 40.2468 4.20433 18.9967 0.0520165 0.0297637 0.0614761 
131 1 59.3501 -0.670024 35.3435 -0.0364889 0.00790537 0.0154788 
201 1 36.6157 4.03996 12.0144 -0.00279801 -0.00756751 -0.00705529 
191 1 38.0749 3.78711 11.9854 -0.0334901 -0.0184699 -0.0153328 
128 1 59.2655 0.582543 35.8098 -0.0216927 -0.00493318 -0.00970275 
143 2 59.8256 -1.14799 34.4827 0.0387135 0.0876835 0.13215 
140 2 59.9288 1.53163 35.2435 0.0296001 0.00539922 -0.0506493 
132 1 58.9658 -3.07405 35.5323 -0.0446641 -0.0184561 -0.00704322 
142 2 58.5163 -4.91294 35.6985 -0.0509231 -0.0131029 -0.0682315 
120 1 58.3651 -1.59534 35.9317 -0.00888902 -0.0292286 -0.00530374 
60 1 45.3236 16.9806 -11.3571 -0.000800986 -0.00821489 -0.00559472 
69 2 43.9446 17.1937 -9.75815 0.0109486 0.0184457 -0.0330556 
54 1 44.4288 17.8045 -10.6134 0.013997 -0.00678483 -0.0232667 
66 2 42.8731 19.2723 -8.7295 0.00684281 -0.108693 0.023312 
47 1 43.2394 21.1651 -9.98144 -0.0086981 -0.00370442 -0.0234279 
57 1 43.1679 19.8505 -9.7662 0.00755864 -0.00322814 0.0301285 
58 1 43.7652 19.0663 -10.9542 0.000443538 0.00881363 0.0247863 
45 1 43.1636 21.9258 -11.143 -0.0151819 0.0101147 -0.0178475 
65 2 43.341 22.97 -11.1987 0.0528461 0.0536485 0.0887227 
332 1 36.0027 12.9306 11.8984 -0.00544204 0.00729055 -0.00711406 
62 2 44.1174 25.3264 -11.0375 0.0240699 0.0226771 -0.0309154 
498 2 44.8395 17.775 0.887392 0.0045394 0.00260682 0.0549946 
108 2 43.1333 17.8911 -0.0684188 -0.00160572 -0.0327697 -0.0498834 
485 1 43.8206 17.9931 0.838839 0.0306323 -0.00704069 -0.0100549 
475 1 44.187 18.1814 3.15238 0.0101635 -0.00486924 -0.0317827 
99 2 45.1576 18.6869 2.34377 0.001131 -0.0334845 0.0305632 
482 1 43.1011 18.2773 2.0975 0.0100919 -0.0202536 -0.014225 
494 2 44.4488 17.1187 3.33523 0.0390874 0.00928928 0.0818916 
87 1 43.4788 19.0621 4.45135 -0.00798957 -0.0130766 0.0218659 
80 1 42.8821 20.0892 4.99052 -0.0115407 -0.00502266 -0.00769169 
85 1 42.536 20.923 4.05808 0.00765582 -0.0194077 -0.0278077 
100 2 42.5832 21.6674 3.36887 0.027519 -0.0880953 -0.0488494 
53 1 43.5597 25.7111 -11.9086 -0.00294409 0.0214859 0.0126892 
39 1 43.2521 21.2691 35.6345 -0.00189023 -0.00433199 0.000492089 
50 1 43.3279 24.5327 35.2267 0.0028289 -0.00489891 -0.00523382 
352 2 53.1784 25.3988 16.7927 0.0243467 -0.021384 -0.126914 
574 2 52.9212 24.6783 16.211 0.0249722 0.152207 -0.0683352 
72 2 46.9241 17.0267 33.3713 -0.0884375 0.0133114 -0.103842 
48 1 45.5297 17.3393 35.5332 0.0104492 0.00405999 0.00415698 
59 1 46.3531 17.8995 33.3606 -0.00387279 0.0140581 -0.00943892 
56 1 45.3331 18.1814 34.4342 -0.0143032 -0.0196725 -0.00920083 
49 1 44.3963 23.5671 32.8924 0.00948716 -0.00160832 -0.0356131 
40 1 45.2112 20.0172 33.4901 0.0238249 -0.0311348 0.00576161 
38 1 44.8563 21.4363 33.759 -0.0193318 0.00196895 0.0100072 
42 1 44.5883 19.5083 34.7543 -0.0315152 0.00808604 0.0135553 
37 1 43.6179 22.0406 34.4755 0.0191634 0.00591872 0.0108685 
67 2 48.4107 19.7913 32.4259 0.0538178 0.0199483 -0.00410955 
63 2 45.6857 22.7755 30.301 0.0948602 -0.0619904 -0.011965 
43 1 43.5989 23.5711 34.1803 0.0125852 -0.0190613 0.00485605 
51 1 45.705 22.1761 31.1762 -0.00623943 -0.0165618 -0.0171925 
52 1 46.5253 21.1847 31.541 0.0047225 0.0146641 0.0245001 
55 1 47.3061 20.2634 32.2356 -0.00366465 0.0203181 0.00246538 
44 1 45.1969 22.331 32.7031 -0.00247983 0.0173015 -0.00281273 
46 1 46.1794 19.2403 32.7648 0.0155791 0.00657432 0.0161044 
41 1 43.6099 19.8049 35.6993 -0.00296506 -0.00409608 0.0045344 
61 2 44.0688 26.1715 35.1939 -0.02837 -0.0368357 -0.0170387 
210 2 74.4837 0.159488 -6.58462 0.0144841 -0.0928318 0.159862 
272 1 77.246 2.67654 9.76187 0.00400311 0.027908 0.0125515 
284 2 74.9523 0.405327 -7.12772 0.0221242 0.00779621 0.0392499 
73 1 77.4105 -10.1903 0.0392278 0.0123964 0.0145642 0.016873 
79 1 78.0352 -11.526 -0.486178 -0.00229987 -0.00371882 -0.00181872 
74 1 78.0361 -8.951 -0.380904 -0.0185113 -0.0117806 0.00420306 
355 2 78.7841 -9.46606 -0.82836 -0.0308665 0.0620474 -0.0312317 
97 2 78.7006 -11.2624 -1.25863 0.0738787 -0.0298112 -0.00213346 
91 1 79.8069 -5.97836 0.500009 0.00373029 -0.0232499 0.0290634 
103 2 81.9175 -5.83454 0.102133 -0.0340597 0.0812487 0.00646602 
88 1 80.7716 -5.69067 0.266214 0.0208042 -0.00911603 -0.00873844 
540 2 73.3894 -1.65239 -6.0983 0.0903997 -0.0322186 -0.00482324 
537 2 73.306 -2.33246 -6.75551 0.0433851 -0.026629 -0.0619567 
81 1 75.5654 -11.9562 0.697726 0.00181931 -0.00421247 0.0081328 
84 1 76.183 -7.16862 2.16947 -0.00948927 0.0213978 0.00840337 
78 1 76.2408 -8.02322 0.871283 0.0195449 -0.0168968 0.00537089 
93 1 74.0187 -10.547 2.49703 -0.0258962 0.0159683 -0.0165608 
83 1 74.6227 -9.26978 2.29463 -0.013297 -0.0231167 0.00546359 
77 1 75.5157 -9.29002 0.998242 0.0176172 -0.00995167 0.0158591 
75 1 76.1368 -10.4835 0.467275 -0.0170591 0.00845151 0.0195621 
94 1 74.2665 -8.05186 3.0201 -0.013795 0.00750326 -0.0148546 
102 2 73.3908 -7.99489 3.68156 -0.00247871 0.00439247 -0.0235497 
96 1 74.944 -6.92675 2.8249 -0.0141513 -0.0105012 0.00227116 
76 1 77.7077 -7.89992 0.594252 -0.00524615 0.00808075 -0.00991342 
82 1 78.3499 -6.69832 0.864987 -0.00370492 -0.00284671 0.00877949 
106 2 74.5759 -6.1139 3.35731 0.103611 0.173709 0.0445391 
95 1 77.1012 -6.45289 3.09589 -0.0236033 -0.00981991 -0.00576733 
107 2 77.4453 -7.12828 3.76915 0.0200584 -0.00114555 -0.0535669 
104 2 79.1699 -6.38194 2.87953 0.029863 0.0140012 0.0785237 
92 1 78.3018 -6.51308 2.31663 0.0200945 0.0185162 0.0107986 
255 1 77.7362 -1.82663 11.49 -0.010825 -0.00693875 -0.00990319 
258 1 76.6727 0.0256603 10.3113 0.00128109 -0.0402256 -0.0116939 
257 1 76.916 -1.31421 10.2081 0.00294595 -0.00348784 0.00126935 
575 2 78.1723 -3.42258 7.92661 -0.0243413 -0.0337962 0.00822423 
263 1 77.154 -1.99149 8.92792 0.0255169 0.0304911 -0.0105144 
285 2 78.8844 -4.59162 9.74792 0.00287362 0.0386548 0.0111887 
261 1 78.3167 -3.16501 11.4081 0.00794952 0.0115161 0.00229145 
286 2 76.4881 -1.92299 6.73935 -0.073991 0.102313 -0.0418666 
273 1 77.8364 -3.13743 8.94888 -0.0339214 -0.000315867 -0.019575 
270 1 78.489 -3.70417 10.0773 0.00571917 -0.0180132 0.0219979 
274 1 76.4797 -1.3446 7.70547 -0.0116584 -0.00965969 0.0426923 
256 1 76.6815 0.645265 11.4681 0.00497946 0.0138695 -0.0177469 
264 1 75.9837 0.466352 8.83574 -0.0375545 -0.00799259 0.00369497 
288 2 75.5578 0.163997 6.27232 -0.00569401 -0.0395868 0.016308 
275 1 76.1961 1.8987 8.98159 -0.0248934 0.0152364 -0.000987116 
262 1 76.9591 2.17168 11.1952 0.0335314 -0.00501921 0.00203368 
276 1 76.157 -0.219721 7.47335 -0.0102466 -0.00881612 -0.0190589 
287 2 82.9419 -5.65651 1.96286 -0.138049 -0.113385 0.0070466 
90 1 74.4369 -11.7387 1.56092 -0.0163399 0.0273047 -0.017008 
33 2 83.594 -5.57426 1.39664 -0.0144773 0.027454 -0.0953333 
517 1 61.4423 11.4167 12.1623 0.0128116 -0.0100512 0.00676893 
298 1 82.4933 -10.2967 16.153 0.00999971 -0.0228492 -0.0208572 
292 1 83.2886 -11.4789 15.9351 -0.00375061 0.00938207 -0.00933481 
307 1 83.3439 -8.93993 15.8814 0.00205833 -0.00405706 -0.0214052 
254 1 76.6788 -0.109246 12.481 0.0138996 0.00754227 -0.00419794 
253 1 77.8403 -1.0046 12.6116 -0.00980268 0.0118924 0.00731035 
259 1 78.3758 -1.6141 13.8506 -0.00924445 0.0220772 -0.0142375 
277 2 78.2614 -1.70001 15.7025 0.00238081 -0.0374258 0.139096 
265 1 78.0608 -0.92442 15.0644 0.0216678 0.01417 -0.0192105 
267 1 77.6599 0.236078 14.7277 -0.0101778 0.000612572 -0.0193142 
266 1 78.9932 -2.86095 13.6319 0.0125543 -0.0234964 0.0016714 
269 1 79.014 -3.80175 12.6407 0.00252737 0.0162769 -0.0059101 
281 2 79.613 -4.57834 12.9369 0.0458278 -0.0291713 0.080119 
260 1 77.0419 0.813091 13.5927 0.00780894 0.000205729 -0.0261097 
279 2 77.4149 0.702764 15.6282 -0.00785172 0.0597403 -0.0461539 
268 1 76.1419 2.01909 13.8326 0.0252151 0.0162614 -0.0278635 
280 2 75.6109 2.00369 14.8439 0.0398223 0.0133458 0.0450923 
271 1 76.555 2.81821 12.7917 0.00230972 0.0169657 0.00916908 
523 1 61.0286 11.3607 17.0766 0.00465758 -0.0168198 0.0161119 
520 1 60.9388 10.9677 15.6065 -0.0233371 -0.00220041 -0.0209898 
531 2 61.8984 9.47724 13.5046 0.0236062 -0.0833925 0.0394782 
519 1 61.9294 10.523 13.3471 0.00596439 0.00672251 0.0274756 
512 1 61.5093 11.5115 14.3835 -0.00377748 0.00723159 -0.00264921 
324 2 80.0651 -9.62372 20.4331 0.00329044 -0.0244001 0.0346879 
308 1 82.0901 -10.1733 17.5147 -0.0232114 0.0209571 0.0257855 
312 1 81.0663 -9.80329 19.9253 -0.00620238 -0.0309352 0.00880841 
311 1 81.6998 -9.96199 18.6972 -0.0211709 -0.012932 -0.0109589 
70 2 63.9334 10.051 12.6784 0.0300106 0.0178229 -0.0734314 
535 2 60.5939 9.89778 15.4186 0.0825791 -0.0420527 -0.0640467 
319 2 83.1614 -7.92875 16.2861 0.037058 -0.0668404 -0.0220093 
536 2 60.8357 10.4846 17.7497 0.0854236 0.0693994 -0.000935543 
144 2 69.0251 25.6456 -0.844882 0.0951517 0.0394178 0.0916867 
394 2 68.9542 25.3963 -1.68486 -0.117937 0.0119387 0.0366101 
468 2 66.5365 30.0357 -6.24179 -0.00118321 0.0277021 0.0161388 
384 1 83.0203 25.8819 7.85841 -0.00513017 -0.0025281 0.0245306 
282 2 68.6627 31.9044 -4.60477 -0.00427787 0.0450507 -0.00545808 
135 2 68.1606 32.1248 -4.82951 0.135239 -0.0798911 -0.0152609 
450 1 65.2237 25.3157 -7.22255 0.0177014 0.000847405 -0.0456545 
462 2 65.3871 24.6405 -7.992 0.0633203 0.00904869 0.0314952 
453 1 65.2209 26.1906 -6.29721 -0.0164144 0.00231556 0.000905047 
435 1 65.252 28.0062 -2.18641 0.00378664 0.00205797 0.0103027 
461 2 66.7392 26.078 -1.52114 -0.0672509 0.0595147 0.0452394 
441 1 65.7793 26.5007 -2.16755 0.023068 -0.000185505 -0.00737626 
437 1 65.4085 28.58 -3.32154 -0.025934 -0.000264613 -0.00137988 
443 1 65.5883 27.051 -5.42705 0.0244111 -0.0332699 0.0290807 
449 1 64.9576 25.6248 -1.20696 -0.00768304 -0.00804552 -0.00629285 
464 2 63.8376 25.6654 -1.41093 0.0716699 -0.0179828 0.0328091 
465 2 65.5733 26.0475 -3.13087 0.0485256 0.0632934 0.0087577 