ITEM: TIMESTEP
260000
ITEM: NUMBER OF ATOMS
576
ITEM: BOX BOUNDS pp pp pp
-1.2000000000000000e+01 8.4000000000000000e+01
-1.2000000000000000e+01 3.6000000000000000e+01
-1.2000000000000000e+01 3.6000000000000000e+01
ITEM: ATOMS id type x y z vx vy vz 
287 2 -9.43844 -5.7723 11.424 -0.0546389 0.00289118 -0.00427841 
284 2 -7.88886 -8.16014 10.5505 0.0318166 -0.0748351 0.0284484 
272 1 -7.6531 -7.07847 10.8046 0.00823683 0.00456429 0.015023 
275 1 -8.47959 -5.95757 10.991 0.00132668 0.00550524 0.02767 
253 1 -4.28382 -3.88016 11.9151 -0.0284851 0.00116341 -0.00360285 
271 1 -5.07199 -7.7063 11.6045 -0.0250578 -0.0068306 0.00314995 
254 1 -4.39535 -5.06558 11.4072 0.000620967 -0.00243052 0.0284763 
262 1 -6.16613 -6.812 11.1003 0.00936797 -0.00747583 0.00266706 
288 2 -9.26085 -3.13402 9.9568 -0.059553 -0.0372924 -0.00930399 
286 2 -8.58229 -1.64256 9.35716 0.00901715 -0.0760274 -0.0273259 
276 1 -8.20612 -3.38399 9.86943 -0.00132194 -0.00228048 0.0161101 
274 1 -7.75398 -2.27284 9.15058 -0.00604716 0.000932988 -0.0056574 
264 1 -7.75339 -4.8078 10.1799 -0.011761 -0.00689668 0.00467435 
263 1 -6.37314 -2.31338 9.41252 0.00772279 -0.00109904 0.0118945 
273 1 -5.95303 -0.834295 9.84367 -0.0170363 -0.0174526 -0.0131084 
258 1 -6.42197 -4.63448 10.1515 0.00374159 0.0176209 0.0255078 
257 1 -5.77236 -3.40631 10.18 -0.00992542 -4.41467e-05 -0.0102724 
270 1 -5.94768 -0.726464 11.2496 0.0250107 0.00433503 0.0143849 
283 2 -5.70544 -8.67726 11.2187 0.0147331 -0.0462062 -0.0616531 
285 2 -5.87835 0.116478 9.39796 0.0084949 0.0378137 0.0252795 
256 1 -5.55887 -5.67282 11.0025 0.00552265 0.0223188 0.015957 
261 1 -4.90248 -1.61873 12.0418 -0.00355408 0.0162773 0.0176741 
255 1 -4.7158 -2.83846 11.2209 0.0129001 -0.0271176 -0.0194622 
279 2 -2.06848 -6.51047 13.8343 -0.00646415 0.0813751 -0.0852671 
269 1 -3.97969 -1.27285 12.8516 -0.0109567 -0.0141814 0.0259624 
205 2 0.129897 -7.09595 16.261 -0.00242878 0.0948809 -0.0178376 
195 1 -0.265269 -9.20465 17.2185 0.00436605 -0.000222969 -0.00212344 
193 1 -0.0458617 -7.77838 17.0915 0.00428898 -0.00817723 0.00676766 
207 2 -1.01208 -9.58753 16.4214 -0.0312601 -0.0287492 -0.0163758 
188 1 0.514016 -10.0081 17.8446 -0.0292316 -0.0102403 -0.00509949 
196 1 0.56844 -11.5007 17.5805 -0.0292355 0.0142776 -0.0356463 
260 1 -3.79483 -5.92195 12.2575 -0.00577706 0.016391 -0.0120136 
266 1 -3.04475 -2.32694 13.2497 0.00266053 -0.0160481 -0.00372401 
277 2 -1.02462 -4.65357 13.4472 -0.0223375 -0.00517002 -0.00194691 
265 1 -2.05037 -4.61016 12.6408 0.00518151 -0.00319453 0.00778766 
267 1 -2.69162 -5.83533 13.0362 0.0181432 -0.0146182 0.00620957 
278 2 -2.91677 -2.22628 14.3559 0.0101815 -0.0441588 -0.0220074 
259 1 -2.78683 -3.4084 12.2792 0.000885865 0.00418743 -0.0044417 
281 2 -3.82007 -0.461195 13.6278 0.00452749 0.00905157 -0.0369504 
206 2 1.57958 -5.05631 17.4195 -0.0638534 -0.0848336 0.109407 
213 2 3.26554 -6.45973 23.5751 0.0131465 -0.0132468 -0.00782341 
204 1 1.9581 -10.5998 23.4085 -0.00381646 0.0111033 0.0215306 
184 1 1.85262 -10.4336 19.9871 0.0271046 0.0239835 0.00367753 
191 1 2.49217 -8.12655 22.6073 -0.0149495 -0.00246675 -0.0160406 
192 1 2.19421 -11.0784 21.9465 0.0108908 0.0206488 0.0206223 
185 1 1.97518 -8.51725 21.3731 0.00981639 0.0152143 -0.0118166 
186 1 2.19349 -10.0311 21.1065 -0.00782942 -0.0101051 0.00218886 
183 1 2.0913 -7.61091 20.2814 -0.0188233 0.00920843 0.00281772 
198 1 2.02243 -5.6835 21.9928 0.00636464 0.00594349 0.00509662 
189 1 2.04051 -6.12579 20.5955 -0.00995604 0.0124397 0.0257694 
181 1 1.71667 -8.17853 19.0509 0.0146607 -0.0122796 -0.00869264 
187 1 1.22809 -7.41494 17.9447 0.000678241 0.00837216 -0.0149288 
182 1 1.43754 -9.5681 18.9419 0.0174957 0.000461615 -0.012644 
197 1 2.02639 -5.46496 19.2599 -0.0173349 -0.00649762 -0.00774107 
194 1 1.58353 -6.07121 17.9503 -0.0392685 -0.00655015 -0.0132865 
201 1 2.72955 -6.67678 22.7972 0.0152939 -0.0149962 0.00366185 
210 2 1.92789 -4.71985 22.4852 -0.0488295 -0.0134207 -0.0257605 
209 2 2.19235 -4.41568 19.3577 -0.0212522 0.0440854 0.0515713 
214 2 1.83826 -8.93817 24.3036 -0.117225 -0.0234624 0.0399156 
202 1 2.60425 -9.3264 23.6501 0.0109411 0.00453715 -0.00920159 
280 2 -3.06883 -8.07398 12.3195 -0.0186094 -0.138429 0.0678856 
190 1 1.99395 -11.8526 19.6387 0.00798587 0.0118231 -0.0143039 
208 2 -0.0941709 -11.3629 16.6167 -0.0440096 0.0862749 0.157632 
268 1 -3.87639 -7.28713 11.9955 -0.0124242 0.0018767 -0.000937407 
179 2 5.697 35.4792 6.04014 0.0692534 0.0030867 -0.00644693 
212 2 1.60528 33.9535 20.2962 -0.0533549 -0.0583055 0.0532751 
211 2 1.4607 34.487 17.9745 -0.00268453 0.183894 -0.101173 
215 2 2.44174 34.6144 22.329 0.05704 -0.0281626 0.0034227 
199 1 1.30951 35.5277 18.1931 0.000909862 -0.00865548 -0.0156241 
203 1 1.91997 35.5721 21.861 -0.00585135 0.00858562 -0.0134983 
200 1 1.9363 35.0737 20.5191 -0.000956177 0.00544334 0.0077281 
216 2 25.2865 0.436279 1.50831 -0.062102 0.00468503 -0.0223524 
410 1 32.014 16.3736 1.73441 0.0229351 0.0284505 -0.0100031 
422 2 32.9407 15.9274 2.132 0.0221707 -0.0859725 -0.0316482 
403 1 31.7888 17.3565 0.607792 -0.00921842 -0.00792661 0.0443736 
421 2 32.7146 16.3871 -1.49887 -0.0401263 -0.08766 0.0791794 
415 1 30.3148 21.7447 -1.15814 -0.0376918 -0.0142241 -0.00187471 
427 2 30.6606 22.8748 -0.84366 -0.0522441 -0.0352371 0.0489941 
406 1 29.0711 21.0841 -0.652326 -0.0102595 0.016334 0.0149311 
428 2 28.0022 23.2291 0.0760332 0.0391092 -0.00708668 -0.0116206 
416 1 28.0911 22.0232 -0.334561 0.0059406 0.0265665 -0.00367338 
412 1 31.5331 20.8586 -1.27829 0.0286198 -0.00292018 0.00617166 
424 2 32.3226 21.0072 -1.95003 0.0434517 -0.0705824 0.0343334 
404 1 31.4467 19.4766 -0.961795 0.00752854 -0.0038566 0.00503711 
411 1 32.5853 18.665 -1.3067 -0.0236086 -0.0367086 0.0273347 
409 1 32.2889 17.3319 -0.833599 0.00639652 -0.017497 0.00418269 
423 2 32.3599 18.6523 -2.55514 -0.0201214 -0.0608856 -0.161837 
430 2 24.3774 18.6359 2.48983 -0.00817435 0.0596774 -0.0176612 
426 2 26.4604 16.5827 3.78041 -0.0393762 -0.0241068 0.0695634 
417 1 27.1227 16.3398 2.92747 -0.0151053 -0.0297846 -0.00401362 
414 1 28.54 15.8936 3.14095 -0.00290661 0.00788831 0.00391201 
399 1 29.3912 17.7183 1.54789 -0.00256008 -0.00185785 0.0173478 
407 1 26.7888 17.381 1.95235 -0.0079726 -0.0198649 -0.0135234 
413 1 31.0637 16.2658 2.81398 0.00879677 0.0103006 0.0157449 
425 2 30.8864 16.9873 3.62084 -0.0138388 0.0230692 -0.0156161 
405 1 29.645 16.5244 2.35031 -0.0119124 0.00301635 -0.0221574 
418 1 24.5888 19.5893 1.95668 0.00972518 0.0160881 0.00289512 
432 2 26.4782 19.6033 2.84558 0.0148912 0.0811183 0.0902694 
420 1 25.9669 19.9811 2.06878 -0.00102721 0.00499735 -0.0117996 
429 2 25.8498 18.0695 2.12065 0.0469013 -0.00761042 -0.0093347 
400 1 28.9324 19.703 -0.0546466 -0.00900057 -0.00304772 -0.0248603 
401 1 27.882 17.9548 1.51134 -0.0133177 0.00598685 -0.000985637 
402 1 28.0442 19.4216 0.760666 0.0125064 -0.0141102 -0.0042844 
569 2 23.937 24.2021 3.53852 0.00855833 0.00496766 0.0201219 
408 1 26.7504 20.2588 0.8808 -0.002075 0.000113216 -0.0239174 
419 1 26.8924 21.6169 0.393655 0.0010157 0.00493307 0.0065864 
431 2 26.1409 22.5148 0.822963 0.0758964 -0.048439 -0.012243 
557 1 23.7067 24.1251 4.67629 0.000804514 0.0169128 0.0166154 
549 1 24.6204 23.1703 5.32956 -0.00268169 -0.0283511 0.0169998 
543 1 24.2681 23.0275 6.68081 0.00553565 0.0271712 0.0116139 
570 2 25.9969 22.0505 3.54444 -0.0582508 0.0631382 0.0768341 
558 1 25.9872 22.4763 4.66268 -0.0140792 0.0260299 -0.00760184 
573 2 27.4561 20.9605 4.6724 -0.00665081 -0.0461122 -0.0295783 
561 1 26.5755 21.3636 5.19526 0.00311993 0.00688538 -0.0083576 
398 1 30.1939 18.9381 -0.25172 0.0153621 -0.00473464 -0.00254588 
397 1 30.3639 17.8534 0.478366 -0.00177915 0.0129849 0.023021 
566 2 22.1809 25.701 4.58664 -0.00566948 0.00167232 0.0121091 
547 1 22.3917 24.9362 6.58255 0.00523546 0.0307363 0.00489289 
554 1 22.6742 24.9882 5.23061 -0.0333836 -5.75078e-05 0.0326712 
541 1 23.273 23.8911 7.3965 0.014013 0.00646601 0.0175214 
567 2 20.898 26.4726 9.18933 0.0299588 -0.0682245 0.14884 
555 1 21.7719 25.8324 8.7613 0.00349993 0.0279596 -0.0139988 
548 1 22.3364 24.6054 9.46584 0.0210266 -0.0312151 0.0165941 
542 1 23.2278 23.7002 8.57097 0.00809851 -0.00442285 -0.0229565 
568 2 21.804 25.0949 11.7591 0.0233282 -0.0254218 0.0254583 
556 1 22.1301 24.5996 10.8772 0.0251683 0.0275621 0.0191458 
559 1 22.5738 23.3171 11.5062 -0.00627457 -0.0180999 -0.0170603 
544 1 23.9661 22.6783 9.35214 0.00898824 0.00576713 0.0285001 
550 1 23.6387 22.6552 10.8846 0.00523093 0.0172298 -0.000830875 
551 1 26.5165 21.5387 6.67266 0.00883675 3.25279e-05 -0.00427495 
560 1 24.7493 22.0472 11.592 0.0152196 -0.00983293 -0.0038614 
563 1 25.8173 21.3083 11.015 -0.0246296 -0.00446489 -0.00295935 
575 2 25.4899 20.2941 11.6124 -0.000862083 0.0992123 -0.0695749 
546 1 24.9341 21.9509 8.86408 -0.031687 -0.000339772 -0.00301676 
552 1 25.7068 21.006 9.43137 0.0146449 -0.00255439 0.0113194 
576 2 26.585 18.94 8.81852 -0.0656903 -0.0122567 -0.0437695 
545 1 25.3726 22.3023 7.28947 -0.00348073 0.0219758 -0.00151009 
564 1 26.3182 19.9626 8.62963 -0.0203289 0.0263003 0.00135528 
562 1 27.2358 20.8082 7.75674 -0.00210709 0.00753743 0.0158207 
574 2 27.8995 19.9663 7.51163 -0.0520248 -0.0644026 0.129286 
565 2 21.6273 26.7756 6.93845 0.0278882 -0.017464 -0.042708 
553 1 21.8271 25.8154 7.45325 0.0134749 0.0225543 -0.00394245 
572 2 24.9046 22.0471 12.6093 -0.0257534 -0.0246904 0.0657009 
105 2 19.4582 33.4068 30.0536 0.00571195 -0.028424 -0.00152547 
571 2 22.2819 23.539 12.5167 0.0766964 0.000578452 0.0308141 
306 1 46.9922 -10.8692 -11.2941 0.0154477 0.0204659 -0.00641859 
318 2 46.8077 -10.7259 -10.0612 0.0377583 -0.061164 -0.0462463 
317 2 48.8495 -8.68806 -10.6458 0.0841239 -0.0717661 0.0456295 
305 1 48.9049 -9.10451 -11.5876 0.0101945 0.0136874 0.000187109 
33 2 60.1516 3.728 -8.48936 -0.0135552 0.0754974 -0.0533603 
16 1 59.1019 11.8246 -11.4532 -0.0202234 0.0102046 -0.00800974 
30 2 58.2092 4.05854 -10.8492 0.0284841 0.0264457 -0.0617547 
21 1 59.1735 4.3453 -9.23317 0.000115762 0.0166044 0.00629729 
18 1 57.7344 4.48958 -9.89459 0.00330378 -0.00876981 0.0104388 
29 2 55.1066 5.52366 -9.53105 -0.0421361 0.0489126 -0.0375826 
9 1 57.3077 5.8743 -9.85276 0.0207034 0.00914679 0.0142343 
25 2 55.848 10.0074 -8.18374 -0.03841 0.0743044 -0.0456663 
8 1 58.2232 10.9172 -10.5925 -0.00334354 -0.0163762 -0.0259947 
13 1 56.331 10.1113 -9.20031 -0.0134774 -0.0108925 0.0253534 
15 1 57.0881 11.195 -9.77214 -0.000932556 0.012659 0.00976542 
2 1 58.7888 9.38571 -10.8146 0.00522059 -0.0220088 0.011952 
7 1 56.4237 8.83224 -9.79467 0.0209767 0.0170072 0.0208951 
26 2 54.8152 8.38444 -8.96999 0.0587432 0.0360912 0.0825833 
3 1 58.2015 7.0552 -9.99346 0.0268549 0.0193172 0.00763772 
17 1 55.9015 6.29777 -9.68495 -0.001219 -0.0218419 0.000598584 
5 1 59.687 6.77639 -10.1222 -0.00162407 0.0204357 -0.0141145 
14 1 55.6252 7.68949 -9.47928 -0.0169076 -0.0130576 -0.0223571 
1 1 57.9479 8.50113 -9.92808 0.0172657 0.00702588 -0.00567229 
460 2 42.237 -3.08173 18.3996 -0.0643792 -0.076907 -0.0182552 
237 1 43.3404 10.6333 30.7935 0.00559601 0.000311464 -0.00985161 
438 1 42.4349 -1.9924 23.5308 0.0310821 0.00162336 -0.0100611 
436 1 42.3415 -2.31028 22.2004 -0.0128242 -0.0149082 -0.00948777 
455 1 40.6818 -3.65949 24.1239 0.00602388 -0.00261156 -0.00276229 
452 1 40.7867 -3.88395 22.7919 0.0218692 0.0198651 0.0219208 
451 1 42.1018 -3.93438 20.5488 0.0213174 -0.0333945 0.0297483 
442 1 41.4343 -3.26553 21.6656 0.0118491 -0.00831333 0.0078131 
463 2 42.0251 -4.94035 20.7233 0.0670097 -0.000435028 0.00312659 
464 2 39.921 -4.66717 22.7481 0.0036731 -0.0489799 -0.20216 
448 1 42.4669 -2.86233 19.4866 -0.00631639 -0.0137262 -0.00222228 
437 1 42.9227 -0.724606 24.1918 -0.00376329 0.00855998 0.00683311 
440 1 42.9546 -1.75203 19.937 0.014132 -0.0159113 0.00634845 
434 1 42.9484 -1.26858 21.3787 0.0130482 0.00472514 0.00113244 
459 2 43.2555 -0.422062 17.7632 0.0150747 -0.00862614 0.0132981 
433 1 43.6855 -0.21759 21.9639 0.00528638 0.0167986 -0.0105169 
447 1 43.6511 -0.821785 18.8746 0.00340773 0.0114935 -0.0039599 
435 1 43.6161 0.0664915 23.3109 0.0244096 -0.0286707 -0.00132136 
441 1 44.2038 1.24305 23.7218 -0.0138471 0.00799428 0.0140647 
461 2 45.1716 3.30806 23.2681 0.0103659 -0.00273011 0.0218177 
446 1 44.4515 2.22012 21.6702 0.01455 -0.00906833 -0.0219438 
449 1 44.7457 2.38195 22.9196 -0.00463007 0.00296155 0.0278575 
458 2 44.6062 3.29047 21.0978 0.0301702 -0.0452301 0.0292276 
439 1 44.1048 0.781742 21.0912 -0.0136863 -0.0117591 0.0108474 
445 1 44.0473 0.292705 19.6648 0.00477876 0.00591349 -0.0110577 
457 2 45.0299 0.594758 18.9864 0.114989 0.0624363 -0.00825707 
319 2 47.8291 -10.8876 28.7443 -0.113741 -0.0080484 -0.0661906 
444 1 41.5496 -2.68007 24.5794 0.0165808 0.00622119 0.0270389 
467 2 39.8045 -4.19703 24.5004 0.0368725 0.0466119 0.0273132 
456 1 41.2305 -2.45022 25.9741 0.0289206 0.00127205 0.0347216 
468 2 40.8515 -3.4918 26.2092 0.00259318 0.0765904 -0.00585089 
454 1 41.6343 -1.07637 26.3746 0.00844017 -0.0208512 -0.0336174 
466 2 40.8643 -0.870892 26.9367 0.021278 0.0405335 0.0504593 
443 1 42.3357 -0.162634 25.4989 -0.0264697 -0.00280846 0.00120569 
465 2 43.7224 0.505205 26.7111 0.00061745 0.0580036 0.0462737 
453 1 43.3256 0.835567 25.7281 0.0102321 0.0264574 -0.00493204 
450 1 44.2655 1.86003 25.0889 0.00275409 0.00876696 -0.00897629 
462 2 45.1614 2.34352 25.3551 0.0402057 0.0129704 -0.00797322 
250 2 40.9022 9.15733 30.2599 -0.0229394 0.140837 -0.0543706 
249 2 43.7382 9.47376 30.6685 -0.00687495 -0.126282 -0.00260307 
293 1 47.8687 -11.3294 34.2273 0.00390192 0.0143177 -0.00128633 
291 1 48.048 -9.97241 34.6007 -0.0385482 -0.0335106 -0.00282177 
289 1 48.5502 -9.09087 33.7114 -0.00093058 0.0108944 -0.00568173 
304 1 49.2596 -8.98552 29.9377 -0.00890838 -0.00686047 -0.0204415 
316 2 50.1788 -8.63904 29.581 0.0252785 0.108533 -0.0741163 
302 1 49.3828 -8.03762 35.4926 -0.0107995 -0.0140531 -0.00823467 
315 2 50.0164 -6.59099 31.3918 -0.0533109 -0.00556715 0.0535807 
295 1 49.1521 -8.0635 33.9056 0.00203313 -0.00155472 0.00826071 
301 1 50.0824 -7.38152 33.208 -0.00186548 -0.0142023 0.0247372 
313 2 50.6621 -6.77502 33.8729 0.017322 0.0381716 -0.102422 
303 1 49.7443 -7.36242 31.9133 0.0225124 -0.0170148 0.0166796 
296 1 48.9311 -8.51381 31.3961 -0.00419691 0.0181028 -0.00368516 
290 1 48.4662 -9.59276 32.3852 -0.000683244 0.0308097 0.0207432 
292 1 48.1469 -10.7912 31.881 -0.00949738 0.0451214 0.00113607 
307 1 48.5662 -10.3207 29.5178 -0.00829068 -0.00289672 0.00990719 
252 2 38.5134 9.12302 30.982 -0.0855075 -0.018066 0.0455925 
251 2 37.1695 10.3128 32.5327 -0.00383934 0.0563264 0.0447823 
248 2 36.8744 11.064 35.1838 0.0205487 0.0595288 0.0213396 
222 1 40.2101 11.714 32.916 0.0175152 -0.025562 -0.000997777 
228 1 38.9776 10.6339 32.4608 0.0296228 0.00573925 -0.00745653 
239 1 37.8072 10.8329 33.1281 -0.0165876 0.0122268 -0.0102079 
236 1 37.7545 11.3741 34.5657 -0.00102527 -0.000931232 -0.00336478 
240 1 39.6047 9.59584 31.4266 -0.0129006 -0.0401869 0.00761939 
221 1 41.4117 11.5272 32.2221 -0.0037372 0.0112332 0.0232028 
238 1 40.9311 9.66021 31.0989 0.00813966 0.00926117 0.0153057 
227 1 42.0163 10.7531 31.1907 -0.0126388 0.0144026 0.00929773 
234 1 44.0501 11.6308 31.2649 -0.00797294 0.0119737 -0.00312646 
298 1 48.2358 -11.3736 30.5011 0.00331845 0.0388522 -0.0279217 
246 2 45.034 11.7653 30.9379 -0.0267086 0.0208233 -0.0397868 
177 2 36.4975 7.09002 16.7733 0.0583737 0.0256349 -0.0469664 
294 1 47.7887 -11.798 33.0089 0.000809982 0.00646159 -0.00181352 
314 2 49.4484 -7.22349 36.0647 -0.0150468 0.0595682 0.0738302 
357 2 59.816 10.5911 28.137 0.0224763 -0.0165471 0.0937759 
171 2 51.7386 12.1809 17.1855 -0.0193831 0.104377 0.0322763 
354 2 59.6758 11.5807 26.2328 -0.000742317 -0.0747065 -0.0256435 
297 1 47.6375 -9.79545 35.9869 0.0129931 -0.0126716 0.00661789 
176 2 49.5589 19.0163 12.0474 -0.0260471 0.149899 -0.00710106 
309 1 46.6268 35.9491 -11.8099 -0.0023246 0.00682148 -0.0322161 
539 2 46.7923 20.965 -10.7001 0.0198938 -0.0458563 0.0735158 
27 2 56.6715 12.1673 -9.74342 0.00529666 0.00128006 0.0890755 
527 1 45.9582 20.8326 -11.4316 0.0373229 0.0150176 0.017855 
99 2 59.7587 22.6924 -4.59282 0.0191588 0.0139096 -0.00128734 
100 2 59.8334 21.3684 -2.46238 0.00468621 -0.00781255 -0.0967247 
163 1 52.5803 15.1907 11.6551 -0.00927885 -0.00189934 0.012493 
175 2 52.9317 15.6335 10.7571 -0.0211575 0.0701614 0.0214481 
321 2 46.2881 35.2327 -11.0495 -0.0618018 -0.0287975 -0.0153024 
241 2 43.4469 15.7984 -12.0268 0.121353 0.013587 -0.00410604 
243 2 41.4832 16.2541 -11.5624 0.014636 -0.158929 -0.00843529 
28 2 58.9374 12.9742 -11.5587 -0.00347855 0.059685 0.12268 
153 1 52.2993 16.2806 18.2384 -0.0205061 0.00620719 -0.0154999 
149 1 51.6789 17.5632 15.8088 -0.0168053 -0.00983619 -0.0113669 
147 1 52.184 16.5476 16.582 -0.0124711 0.0141993 0.0179189 
150 1 51.5685 17.6548 14.4271 -0.02043 0.0101641 0.0032913 
148 1 51.9623 16.3197 13.901 -0.014803 -0.0205764 0.0273196 
146 1 52.4162 14.9759 14.7422 -0.00123348 0.0220211 -0.0129886 
145 1 52.7394 15.3825 16.0799 0.000857936 0.00592341 0.000691079 
152 1 53.1364 13.9672 14.2184 -0.0200955 -0.0130031 -0.0187684 
151 1 52.9162 14.1173 16.9382 0.00395472 -0.017921 -0.00214966 
160 1 52.7474 14.031 12.6075 -0.0239331 -0.0116271 0.0257928 
526 1 47.2012 23.3749 34.273 -0.0173084 -0.0230642 -0.0245208 
154 1 51.8233 16.1649 12.5109 0.0120585 -0.00327249 -0.00549815 
159 1 52.637 12.8035 15.2219 -0.0190089 0.00333267 -0.000828672 
157 1 52.4939 12.7169 16.6173 0.00379646 0.0014142 -0.000132606 
528 1 47.0567 22.3879 35.0535 0.0116541 -0.00388154 -0.0100685 
156 1 50.946 18.675 13.8217 -0.00980591 -0.00569446 0.0066957 
155 1 51.3897 18.8978 16.5685 -0.00485801 -0.00264615 0.0197758 
165 1 51.4993 18.8594 18.0124 0.0198617 -0.0102105 0.0124953 
166 1 51.1431 20.0486 15.6843 -0.00412803 0.0223478 0.0157782 
168 1 50.444 19.927 14.4982 -0.00508877 0.035526 0.024098 
178 2 51.1669 21.0591 16.0695 0.0905964 0.0765284 -0.0560027 
180 2 50.2438 20.9875 14.0884 -0.0405968 -0.0424445 0.0176325 
158 1 53.3535 14.0703 18.2442 0.0100043 -0.0225504 -0.00223987 
161 1 52.8049 15.128 19.1447 0.0147299 -0.0256386 -0.00628118 
173 2 52.6855 15.3597 20.2698 -0.0403376 0.031207 0.00543698 
170 2 53.2458 13.1839 18.8058 -0.087588 -0.0768363 0.0107401 
162 1 51.6026 17.4487 18.6271 -0.00850086 0.0295746 -0.00712812 
174 2 51.6263 17.3438 19.8698 0.0320647 -0.0355694 0.0519812 
320 2 47.1927 35.102 29.1061 -0.0918353 -0.130662 -0.127082 
164 1 51.0031 17.2922 12.2804 0.0126251 -0.0152358 -0.0133465 
533 2 44.1404 23.795 29.0755 0.00163742 0.0398606 0.0778476 
322 2 47.3953 33.5868 35.9671 -0.0185298 0.0880936 -0.0451201 
232 1 38.5681 15.0432 35.2916 -0.0150791 0.00407069 -0.00991121 
231 1 41.3269 15.4974 35.6262 0.00344605 0.0258703 0.017124 
218 1 40.594 13.7738 34.1311 0.0016339 -0.0055405 0.0197377 
217 1 41.9067 13.6775 33.5268 0.0163764 0.000959 -0.0183608 
224 1 40.1484 14.6471 35.1253 -0.0232049 0.00630178 0.0168479 
235 1 37.9487 13.9891 34.8689 -0.0260485 0.014369 0.0149089 
532 2 42.0933 17.2299 34.3208 0.0546154 0.0392764 -0.0788865 
247 2 36.9444 14.2636 34.9751 0.092353 -0.0250409 0.00512046 
220 1 39.65 12.8242 33.59 0.0152456 0.0272272 -0.0104414 
226 1 38.3587 12.6293 34.3266 -0.00835596 0.00817417 -0.0158142 
223 1 42.9392 14.267 34.3239 -0.00927999 -0.00149153 -0.00620511 
225 1 43.547 12.9413 31.9028 -0.0102369 -0.0194434 0.00179637 
219 1 42.1858 12.7913 32.3774 -0.0193239 0.0104625 -0.0179027 
233 1 44.5963 13.8186 32.3778 0.0235794 -0.0264021 -0.00190403 
245 2 45.2284 14.4527 31.8653 0.0524424 -0.0366797 -0.0557385 
230 1 44.2647 14.364 33.6272 0.0163584 -0.00850846 -0.0127574 
535 2 44.0523 17.3602 35.5691 -0.049017 -0.0146721 0.00430605 
242 2 44.5031 15.3691 33.436 -0.0042116 -0.0332899 -0.0443238 
229 1 42.683 15.4248 35.3059 0.00949386 -0.0172559 -0.0121366 
167 1 50.2879 18.4046 12.6345 0.00937376 0.0228273 9.80858e-06 
538 2 48.1054 23.678 33.5892 -0.00696377 -0.0588554 -0.102051 
517 1 42.2223 19.7347 30.6854 0.00065063 0.00203309 -0.0255283 
529 2 41.8691 19.4804 29.6538 -0.0201953 0.00832694 -0.0388772 
519 1 41.4594 19.1894 31.848 -0.00108568 -0.0212291 -0.00809566 
531 2 40.5744 18.6119 31.9238 -0.0249742 -0.08175 -0.0564564 
530 2 43.4131 21.2723 28.8237 -0.0355192 -0.0627589 0.0529957 
518 1 43.407 21.819 29.7437 -0.00404683 -0.0345643 0.0175045 
514 1 44.4173 19.5832 35.2158 -0.0267555 0.00999795 0.0236651 
523 1 43.6392 18.3804 35.0509 -0.00808552 -0.0151305 0.00686751 
520 1 42.6344 18.1714 34.0938 0.00267215 0.0118379 0.0117182 
508 1 43.7992 20.932 34.653 -0.00734859 0.0167204 -0.0092236 
510 1 44.787 21.8789 34.7982 0.00236641 0.000800685 -0.0144595 
512 1 42.191 19.2886 33.1576 0.00746664 0.010175 -0.00274735 
506 1 42.9678 20.3528 33.5162 -0.000369374 0.0278159 -0.0268142 
509 1 44.6918 22.6978 33.7273 0.00487853 -0.00526544 0.0106334 
505 1 43.3482 21.3257 32.3521 0.00236011 -0.0120526 0.00513945 
511 1 43.0583 20.8203 30.9354 -0.0240122 -0.0419821 -0.020203 
507 1 43.9687 22.5074 32.5521 -0.0129984 0.00977763 0.0034081 
521 1 43.8981 23.2609 29.9722 0.0150237 0.00399964 -0.00815359 
513 1 44.1401 23.5257 31.3369 3.04274e-06 0.00171874 -0.023837 
516 1 45.9631 22.068 35.8265 0.0084432 -0.00131262 0.0186168 
515 1 45.9165 23.7054 33.3904 -5.49184e-05 0.0389566 0.0142715 
522 1 44.4561 24.8825 31.9876 0.0246557 -0.0147549 -0.00515741 
534 2 43.8041 25.8384 31.816 -0.048157 -0.0175523 -0.00764424 
525 1 45.4799 24.6549 32.8021 -0.00985337 -0.00244364 -0.00958049 
299 1 47.4366 35.7184 35.0385 0.0264369 0.0233234 -0.00415373 
308 1 47.841 35.2729 30.1334 0.0162616 -0.00527159 -0.0217667 
324 2 48.2903 32.8719 33.6442 -0.0632009 0.011384 0.0278798 
312 1 47.7786 33.925 33.5867 0.0141148 0.00876131 0.001536 
300 1 47.779 34.8749 32.4213 0.00388137 -0.00153071 -0.0149445 
311 1 47.2815 34.4463 31.1787 -0.0116478 -0.0212572 -0.0239031 
323 2 46.4476 33.5822 31.0926 -0.00374224 -0.0407288 0.091853 
310 1 47.3901 34.2083 34.9816 0.0288656 0.0207612 -0.0207812 
244 2 37.9437 15.9846 35.6306 -0.0709385 -0.0451993 0.0700895 
172 2 52.8163 13.217 12.0722 -0.0164285 -0.0108226 -0.0529259 
524 1 45.7816 19.5997 35.7966 0.0162022 0.00180554 0.0022496 
169 2 53.6626 12.2695 14.9958 0.0365277 0.0364424 0.00403563 
536 2 46.1596 18.5798 35.7672 -0.0122742 0.052586 -0.0326534 
22 1 61.5486 4.8768 -9.81949 0.000902694 -0.0137102 -0.028568 
34 2 61.9524 3.92522 -9.9557 -0.0202686 -0.0581575 0.0542704 
502 2 74.4514 6.68922 11.0918 0.0469792 0.00670734 -0.0558115 
24 1 62.3109 5.95913 -10.2795 0.0146892 -0.014648 -0.0120018 
36 2 62.9567 5.47113 -10.8395 0.0859684 -0.0254639 -0.0939096 
35 2 63.816 8.29597 -10.3167 -0.101888 -0.0918597 -0.106063 
23 1 62.9384 8.72215 -10.6764 -0.0277679 0.00821883 0.00862754 
12 1 61.9129 7.60712 -10.5709 -0.0237989 -0.0131168 0.0094992 
6 1 60.6893 7.66515 -10.5612 0.00552029 0.02284 0.00787973 
10 1 60.9868 10.1329 -11.2777 0.00433379 0.00197643 -0.00315041 
20 1 62.2672 9.61267 -11.6035 0.00403605 0.00863858 -0.00401533 
134 2 72.6338 -11.8147 4.00506 0.0776688 -0.0887917 0.0175347 
133 2 72.2781 -11.1657 1.43647 -0.0684391 -0.0879504 0.111067 
496 2 70.4144 10.4195 6.17958 0.0576915 -0.0504158 -0.025985 
493 2 71.4103 9.27956 3.28133 0.0157788 0.0442272 -0.0341128 
494 2 76.8208 9.43614 3.98994 0.0184775 0.0103464 -0.000750144 
481 1 73.7801 8.98093 3.86995 0.00640079 -0.0038474 0.00854565 
482 1 76.5223 8.30208 4.09054 0.020828 0.0209182 -0.0160079 
483 1 72.4084 9.18512 4.20028 0.00794646 0.00341923 -0.00965854 
475 1 75.1831 9.03001 4.45566 0.0264927 0.00225334 -0.00727007 
497 2 78.8068 8.2418 4.4192 0.0542525 -0.00413343 -0.0133943 
485 1 77.7413 8.01504 4.85928 0.0194507 -0.000531338 -0.017157 
108 2 67.782 2.22543 2.31427 0.035937 0.0150906 -0.0504562 
480 1 73.6156 5.38043 8.195 -0.00482603 0.0150164 -0.0270078 
491 1 73.0859 4.4454 7.27805 0.0114781 -0.016394 -0.0283143 
488 1 72.9823 3.57404 6.26736 -0.0179217 0.0200298 0.00368244 
500 2 74.0446 3.93451 5.63614 0.0513851 0.00583093 -0.0903555 
492 1 73.6847 5.47462 9.72673 0.00374668 -0.00772513 -0.00447946 
478 1 71.9823 7.42734 7.476 0.0100997 -0.0179537 -0.00100386 
503 2 72.187 7.03592 8.59599 0.0752833 0.121546 -0.00459143 
484 1 70.8032 9.30481 6.31603 0.00439924 0.00370907 -0.00357321 
487 1 70.9027 8.37962 7.39253 -0.0217644 0.00898944 0.00102262 
499 2 70.2947 8.65423 8.28547 -0.105701 0.0403672 0.0714658 
476 1 72.0643 9.06435 5.62197 0.0234451 0.00825851 -0.0105614 
490 1 74.6488 6.29178 10.0816 0.0019635 -0.0211429 -0.0151387 
474 1 74.3552 6.60663 7.70273 0.00318925 0.000124353 -0.0424692 
472 1 73.3497 7.50068 7.2779 0.0186023 -0.0103126 -0.0233479 
501 2 76.4268 7.28359 10.123 0.0659021 0.0483223 0.0432295 
470 1 73.3838 8.37861 6.18829 -0.0209577 -0.00810328 -0.00644805 
479 1 75.8265 6.8557 9.45839 -0.0131117 0.00738524 -0.0148765 
473 1 75.65 7.20218 7.96216 -0.00685261 0.0368616 0.00404399 
469 1 74.7515 8.48268 5.73787 0.00937766 -0.00353895 -0.00599405 
477 1 77.1702 7.71499 6.19797 0.0237284 -0.00405223 -0.0296867 
486 1 78.3978 7.60399 7.25629 0.030575 0.00104621 0.00253326 
471 1 75.9223 7.82975 6.55266 -0.025295 0.00697826 -0.0063788 
498 2 77.9318 5.58093 8.05315 0.044929 -0.10744 -0.0133555 
489 1 78.3915 6.49513 8.03434 -0.00538156 -0.0182827 -0.00977929 
504 2 72.9593 5.33789 10.5104 0.0441639 0.0269371 -0.048428 
11 1 60.1484 5.47762 -9.48173 -0.0114181 -0.0173652 -0.00112075 
19 1 60.4493 11.4307 -11.4379 0.0245394 0.0147056 0.0254808 
4 1 60.0429 9.08064 -10.8814 0.0122685 0.00716538 -0.00946941 
345 1 60.4009 11.6134 28.0122 -0.0269438 -0.0060189 -0.0109829 
540 2 83.3436 -11.8772 32.0087 0.113361 -0.00801381 -0.0378994 
65 2 74.9315 10.2588 22.2332 -0.0083145 -0.0472916 -0.00750132 
54 1 76.6898 9.75856 23.6108 -0.00889019 0.00509234 -0.0140084 
66 2 76.3984 8.86463 23.0762 0.0222051 0.108462 0.0750315 
45 1 75.7948 10.999 23.7156 -0.00737441 -0.0217132 0.0188862 
53 1 74.7599 11.2306 22.7399 0.017222 -0.0223261 -0.000940809 
69 2 78.444 9.25103 24.5754 0.110717 0.0160464 -0.00649104 
57 1 77.9451 9.87808 24.248 -0.013607 0.00212266 0.0315809 
32 2 62.4721 10.5743 35.5066 0.109732 0.029317 -0.00395932 
358 2 60.1241 11.8731 30.0855 -0.00775922 -0.0480731 0.0349896 
47 1 78.309 11.0095 25.1736 -0.0293647 -0.00879412 -0.0234561 
70 2 80.6182 10.2665 26.1187 0.00658668 -0.0863558 0.0698027 
58 1 79.5765 11.0577 26.0738 -0.0295433 -0.00595563 -0.013236 
537 2 82.7833 -11.9308 32.7519 -0.0873567 0.0125808 0.0808821 
89 1 64.8278 24.3334 -5.53825 -0.0196088 -0.018845 0.003163 
86 1 63.4992 23.8027 -5.88363 0.0232476 0.00496512 0.00434529 
101 2 64.8687 25.4942 -4.86617 -0.0425803 0.0233513 -0.0311335 
85 1 61.6579 22.6336 -5.87756 -0.00526595 0.0177776 -0.00675425 
97 2 61.5936 22.7575 -7.0326 0.0423369 -0.0550496 -0.042895 
91 1 61.2873 19.8111 -1.70121 -0.0118884 0.0209144 0.00346389 
103 2 60.7995 19.4285 -0.776459 0.0527953 0.0107715 0.0144615 
104 2 62.2263 18.566 -0.666395 0.0131097 0.00872227 0.041638 
92 1 63.3436 18.9418 -0.924461 -0.00489176 0.0103713 0.0169876 
79 1 63.1699 22.5409 -5.66136 -0.00355764 0.012496 0.00757829 
88 1 60.9435 20.9564 -2.32859 0.0140072 0.00470049 -0.000236832 
87 1 60.8132 22.3595 -4.69392 0.00935451 -0.00573773 0.0258197 
73 1 63.4448 21.6687 -4.58794 0.0056304 -0.00273831 0.0166894 
74 1 62.7866 21.6625 -3.33904 0.0092388 -0.00254544 -0.00864356 
80 1 61.3984 21.5585 -3.65533 -0.00358886 0.0242882 0.00521894 
81 1 65.6352 23.1841 -4.7744 -0.0142469 0.0057037 0.00180133 
75 1 64.7973 22.1014 -4.29739 0.00519196 0.0117805 -0.0136423 
77 1 65.6455 21.2273 -3.41104 0.02626 0.00971651 0.00801851 
78 1 64.8514 20.5155 -2.61404 -0.000412991 0.0216549 0.0487615 
76 1 63.4379 20.6132 -2.74824 -0.0288881 -0.00570877 -0.000640704 
82 1 62.7237 19.7652 -1.95627 0.00431038 -0.00199438 0.0126199 
95 1 64.6836 18.7708 -0.955227 -0.0227073 -0.00729743 -0.0323104 
84 1 65.4654 19.8733 -1.57427 0.000369428 0.00309165 0.0168652 
376 1 79.6308 25.1592 10.4455 0.00558927 -0.0225364 0.00428114 
90 1 67.2488 23.0474 -4.68007 0.0125586 -0.00976555 0.0288988 
93 1 67.7613 22.2656 -3.55336 0.0168324 -0.00424013 -0.0243146 
83 1 67.0172 21.1113 -3.07984 0.00525621 -0.0166369 -0.00828585 
96 1 66.9717 19.9005 -1.11266 -0.0207268 -0.0175476 0.0069973 
106 2 67.3997 19.4805 -0.26802 -0.0457671 -0.014325 0.0289957 
94 1 67.7977 19.9629 -2.34208 -0.00264757 -0.00609415 0.00481354 
98 2 62.9893 24.469 -6.6017 0.0364399 0.0056062 -0.0347451 
102 2 67.7681 22.7844 -5.56428 0.0614839 0.044669 0.00313573 
136 2 76.1964 35.0227 -0.899334 -0.0389604 -0.0290179 0.0929914 
139 2 77.1558 32.6963 -2.36335 0.133789 0.0960167 0.0114342 
124 1 75.6474 34.1133 -1.11564 -0.0321182 0.0190362 0.00241487 
127 1 76.1249 32.8335 -1.68379 0.0154342 0.00840452 0.0150235 
116 1 74.6648 34.481 -0.14072 0.00274681 0.00225188 0.00120533 
118 1 75.9873 31.785 -0.652246 -0.00800348 -0.0389071 -0.0119326 
391 2 79.2193 26.4118 8.95852 -0.00457628 0.00320205 -0.0963464 
123 1 73.352 35.3321 -0.157981 0.0269673 0.0201901 0.0197947 
128 1 77.1496 30.92 -0.416326 -0.000480518 -0.0237129 0.00683823 
140 2 77.972 30.4107 -1.18061 -0.0557845 0.0431034 -0.0643121 
71 2 75.8349 17.8633 10.8881 0.0527149 0.0156372 0.0720502 
107 2 64.8499 18.1374 0.141459 -0.126981 -0.00215576 0.0231987 
144 2 77.836 29.4184 3.1916 0.0606721 0.0330811 -0.0231869 
130 1 75.7975 29.6584 4.20577 0.0146025 0.00739133 0.0107734 
142 2 75.4028 28.9024 4.99935 -0.0865157 -0.0371256 0.0478354 
132 1 76.8367 29.6522 3.34198 0.00365185 0.00281397 0.00953832 
364 1 76.9507 25.708 11.739 0.0087988 0.00969798 -0.0385365 
137 2 72.3244 34.0721 5.63444 0.0789468 -0.012982 0.0969832 
122 1 72.9536 35.1788 3.67852 0.0183001 -0.0125597 -0.00563714 
110 1 74.599 33.321 0.879413 -0.00264179 0.0326215 0.0159204 
112 1 75.5326 32.1833 0.712746 -0.0102276 -0.00370432 0.0220528 
115 1 73.3059 34.8996 2.37045 -0.00430666 -0.00241007 0.0130357 
109 1 73.8859 33.5152 2.12767 -0.0068691 -0.0229346 0.00983375 