ITEM: TIMESTEP
0
ITEM: NUMBER OF ATOMS
576
ITEM: BOX BOUNDS pp pp pp
-1.2000000000000000e+01 8.4000000000000000e+01
-1.2000000000000000e+01 3.6000000000000000e+01
-1.2000000000000000e+01 3.6000000000000000e+01
ITEM: ATOMS id type x y z vx vy vz 
1 1 -0.5083 -1.3199 0 -0.00791696 -0.00122269 0.0161259 
3 1 -1.3972 -0.2197 0 0.00935141 -0.00293139 0.00394916 
7 1 -1.016 -2.6384 0 0.00897032 0.0169539 -0.00133264 
9 1 -2.7929 -0.4393 0 0.00603195 0.0126518 0.0154302 
13 1 -0.1223 -3.7174 0.0001 0.00365379 -0.00751772 0.0200414 
14 1 -2.4027 -2.8392 0 -0.00430839 -0.0176433 0.0160327 
17 1 -3.2805 -1.7528 0 0.0197431 -0.016481 -0.0127066 
25 2 -0.4929 -4.7401 0.0001 0.000252187 -0.0364066 0.00920791 
26 2 -2.8137 -3.8463 0 0.0258963 0.0486731 0.027091 
29 2 -4.3515 -1.9432 0 -0.025028 0.000168613 -0.0303291 
2 1 0.8889 -1.1001 0 0.00170036 -0.0143161 0.00640046 
8 1 1.7769 -2.1991 0 0.0192336 -0.0129531 0.0158738 
15 1 1.2575 -3.5004 0.0001 -0.000402385 -0.0183656 -0.0157736 
16 1 3.1582 -1.9646 0 0.0130169 -0.00962987 -0.0184492 
19 1 3.6602 -0.6612 0 0.0117406 -0.00340248 -0.00614962 
27 2 1.9241 -4.3599 0.0001 -0.0123623 0.0552173 -0.0341784 
28 2 3.8586 -2.7969 0 0.0638654 0.0271976 0.0642877 
31 2 4.7379 -0.5136 0 0.0361316 -0.0648432 -0.0501456 
5 1 -0.8889 1.1001 0 0.00243686 0.00850525 0.00873527 
11 1 -1.7769 2.1991 0 0.000120252 -0.00682235 0.0105424 
18 1 -3.6602 0.6612 0 -0.00289851 -0.00321423 -0.0133821 
21 1 -3.1582 1.9646 0 0.0156889 0.00591128 -0.0141567 
22 1 -1.2575 3.5004 0 0.00614248 0.0169428 0.0189119 
30 2 -4.7379 0.5136 0 -0.0433786 0.0313854 -0.0621801 
33 2 -3.8586 2.7969 0 -0.0155801 0.0707124 0.044949 
34 2 -1.9241 4.3599 0 -0.0438933 -0.054261 -0.0413868 
4 1 1.3972 0.2198 0 -0.00464874 -0.0130874 -0.0163011 
6 1 0.5083 1.3199 0 0.00103762 0.00823073 0.00774085 
10 1 2.7929 0.4393 0 0.00535136 -0.0176827 0.013151 
12 1 1.0161 2.6384 0 0.0200588 0.0189592 0.0133472 
20 1 3.2805 1.7528 0 -0.01116 -0.0190848 0.0051609 
23 1 2.4027 2.8392 0 -0.00245861 0.0180882 -0.00621565 
24 1 0.1223 3.7174 0 -0.00887773 -0.00423062 -0.00411507 
32 2 4.3515 1.9432 0 0.0439098 0.0613355 0.0263095 
35 2 2.8138 3.8463 0 -0.048149 -0.069388 0.070815 
36 2 0.4929 4.7401 0 0.0584216 0.0272246 -0.0530124 
289 1 -0.5083 -1.3199 24 0.0169866 -0.0103307 -0.0188684 
291 1 -1.3972 -0.2197 24 -0.0200151 -0.00324496 0.0054398 
295 1 -1.016 -2.6384 24 0.0196304 -0.016171 0.00821735 
297 1 -2.7929 -0.4393 24 -0.00597774 0.0139025 -0.010705 
301 1 -0.1223 -3.7174 24.0001 -0.0103613 0.0202755 0.0201275 
302 1 -2.4027 -2.8392 24 0.00152387 -0.0152908 0.0166703 
305 1 -3.2805 -1.7528 24 0.0189265 0.0152624 -0.0118778 
313 2 -0.4929 -4.7401 24.0001 0.00361316 0.071284 -0.0547902 
314 2 -2.8137 -3.8463 24 0.058553 -0.0475947 -0.0482954 
317 2 -4.3515 -1.9432 24 -0.042049 -0.0301402 -0.0107876 
290 1 0.8889 -1.1001 24 0.0157671 0.00255603 0.0175802 
296 1 1.7769 -2.1991 24 -0.0135586 -0.0114456 -0.0166128 
303 1 1.2575 -3.5004 24.0001 0.00713888 0.00119326 0.01245 
304 1 3.1582 -1.9646 24 -0.00268619 -0.0177528 -0.0121417 
307 1 3.6602 -0.6612 24 0.0105711 -0.0131773 -0.00411892 
315 2 1.9241 -4.3599 24.0001 0.0246134 0.0391415 -0.0227031 
316 2 3.8586 -2.7969 24 -0.0486318 -0.0485614 -0.0233482 
319 2 4.7379 -0.5136 24 -0.0105006 -0.0559572 -0.00396773 
293 1 -0.8889 1.1001 24 0.00221788 -0.00638509 -0.0125706 
299 1 -1.7769 2.1991 24 0.00210766 -0.00548979 0.00219316 
306 1 -3.6602 0.6612 24 0.00548978 0.00234351 -0.0122329 
309 1 -3.1582 1.9646 24 0.0127346 -0.0180664 -0.0109038 
310 1 -1.2575 3.5004 24 -0.0146868 0.0122198 0.00301688 
318 2 -4.7379 0.5136 24 -0.0404075 0.0107091 -0.0108877 
321 2 -3.8586 2.7969 24 -0.035085 -0.0286828 -0.0666468 
322 2 -1.9241 4.3599 24 0.0425781 -0.0544823 -0.049664 
292 1 1.3972 0.2198 24 0.00809695 0.000120552 -0.018634 
294 1 0.5083 1.3199 24 0.0169488 0.0133582 -0.0161016 
298 1 2.7929 0.4393 24 -0.0101602 -0.0195402 0.011644 
300 1 1.0161 2.6384 24 0.0119764 0.00561881 0.0125255 
308 1 3.2805 1.7528 24 0.0177237 -0.0187963 -0.00572672 
311 1 2.4027 2.8392 24 0.0180582 0.00129128 0.0124658 
312 1 0.1223 3.7174 24 0.0170123 0.00972634 -0.0196927 
320 2 4.3515 1.9432 24 -0.035571 -0.0616331 -0.0507788 
323 2 2.8138 3.8463 24 0.00265373 -0.0676056 0.0539665 
324 2 0.4929 4.7401 24 0.0712434 -0.00680186 0.00205155 
145 1 -0.5083 22.6801 0 -0.00948178 0.0161344 -0.0186652 
147 1 -1.3972 23.7803 0 0.00953014 -0.00548402 0.0167343 
151 1 -1.016 21.3616 0 -0.0195855 0.00971896 -0.0200864 
153 1 -2.7929 23.5607 0 -0.0180302 -0.00413707 0.00320168 
157 1 -0.1223 20.2826 0.0001 0.0107014 -0.00723739 -0.00470234 
158 1 -2.4027 21.1608 0 0.0141598 0.00623242 -0.0120887 
161 1 -3.2805 22.2472 0 0.0200923 0.00425798 -0.00125875 
169 2 -0.4929 19.2599 0.0001 -0.0592418 0.0478416 0.0391763 
170 2 -2.8137 20.1537 0 -0.00574591 0.0670747 -0.00353154 
173 2 -4.3515 22.0568 0 -0.0552793 -0.011286 0.000783751 
146 1 0.8889 22.8999 0 0.0137035 -0.00179411 0.0083682 
152 1 1.7769 21.8009 0 0.0144542 0.0119717 -0.00677 
159 1 1.2575 20.4996 0.0001 0.00336902 -0.0162456 -0.00898408 
160 1 3.1582 22.0354 0 0.00137419 -0.0187203 -0.00489067 
163 1 3.6602 23.3388 0 -0.00686208 0.0186265 -0.0186692 
171 2 1.9241 19.6401 0.0001 0.0161297 0.0457375 -0.0692146 
172 2 3.8586 21.2031 0 -0.00893229 0.0391074 -0.0240284 
175 2 4.7379 23.4864 0 -0.0601466 -0.0297542 0.0544791 
149 1 -0.8889 25.1001 0 0.000545919 -0.0188502 -0.00510794 
155 1 -1.7769 26.1991 0 0.015862 -0.00880886 -0.0168396 
162 1 -3.6602 24.6612 0 -0.0156319 -0.0161781 0.0134422 
165 1 -3.1582 25.9646 0 -0.0112397 0.000906237 0.00715368 
166 1 -1.2575 27.5004 0 -0.0163296 -0.00319783 0.0150342 
174 2 -4.7379 24.5136 0 0.033941 -0.0576899 -0.00635561 
177 2 -3.8586 26.7969 0 0.026346 0.0421438 0.0512278 
178 2 -1.9241 28.3599 0 0.00269325 0.02568 -0.0361234 
148 1 1.3972 24.2198 0 0.0127937 -0.013303 -0.0167154 
150 1 0.5083 25.3199 0 -0.00725231 0.00851756 0.00972648 
154 1 2.7929 24.4393 0 -0.00603009 -0.00113274 0.00411456 
156 1 1.0161 26.6384 0 0.0127544 -0.0158273 0.019861 
164 1 3.2805 25.7528 0 -0.0134127 0.00950009 0.00786707 
167 1 2.4027 26.8392 0 -0.019633 -0.00677136 0.00272444 
168 1 0.1223 27.7174 0 0.00403752 0.0169338 -0.00950713 
176 2 4.3515 25.9432 0 -0.0191723 -0.0701831 -0.0177475 
179 2 2.8138 27.8463 0 0.0604779 0.0457875 0.0590548 
180 2 0.4929 28.7401 0 -0.0495338 0.0641267 -0.0214692 
433 1 -0.5083 22.6801 24 -0.0023995 -0.0179603 0.00118321 
435 1 -1.3972 23.7803 24 -0.00246357 0.0171135 0.005074 
439 1 -1.016 21.3616 24 0.01731 -0.0125707 0.0185245 
441 1 -2.7929 23.5607 24 0.0124741 0.00963045 0.016063 
445 1 -0.1223 20.2826 24.0001 0.00152688 -0.00594138 -0.00956928 
446 1 -2.4027 21.1608 24 0.00906669 -0.0107903 0.000700445 
449 1 -3.2805 22.2472 24 -0.0118328 -0.00111611 -0.0047818 
457 2 -0.4929 19.2599 24.0001 -0.0508191 0.015499 -0.00839006 
458 2 -2.8137 20.1537 24 0.00324124 -0.0420092 0.0500124 
461 2 -4.3515 22.0568 24 0.0308044 0.0386678 0.00963279 
434 1 0.8889 22.8999 24 0.00598282 0.010697 -0.0145273 
440 1 1.7769 21.8009 24 -0.0053252 -0.0152787 0.0145803 
447 1 1.2575 20.4996 24.0001 0.00564446 0.00728301 0.017983 
448 1 3.1582 22.0354 24 -0.00532285 -0.0169636 -0.008904 
451 1 3.6602 23.3388 24 0.0141792 0.00271504 0.0131837 
459 2 1.9241 19.6401 24.0001 -0.0127594 -0.0521336 0.0300993 
460 2 3.8586 21.2031 24 0.0194171 0.0583614 -0.00229924 
463 2 4.7379 23.4864 24 0.0528554 -0.032488 0.0680299 
437 1 -0.8889 25.1001 24 -0.0114004 0.0179562 0.000598434 
443 1 -1.7769 26.1991 24 0.0118172 0.0078374 -0.0134049 
450 1 -3.6602 24.6612 24 -0.00336257 -0.0186709 0.00120575 
453 1 -3.1582 25.9646 24 -0.0186732 0.0204126 0.0181244 
454 1 -1.2575 27.5004 24 -0.0163887 -0.00855236 0.0109489 
462 2 -4.7379 24.5136 24 0.0301475 -0.0119399 0.0014473 
465 2 -3.8586 26.7969 24 -0.0695102 0.032181 0.035251 
466 2 -1.9241 28.3599 24 -0.0347759 0.0273818 0.0202354 
436 1 1.3972 24.2198 24 -0.00344788 -0.0110102 0.0113467 
438 1 0.5083 25.3199 24 -0.0202628 -0.00756288 0.00236746 
442 1 2.7929 24.4393 24 0.0142462 0.0171791 -0.00520238 
444 1 1.0161 26.6384 24 -0.00230379 -0.0156049 0.00949249 
452 1 3.2805 25.7528 24 0.014118 0.0041353 -0.00393975 
455 1 2.4027 26.8392 24 0.0153734 0.0175302 0.00693201 
456 1 0.1223 27.7174 24 0.00582525 -0.00181716 -0.00832831 
464 2 4.3515 25.9432 24 0.0660842 0.0648012 0.0385441 
467 2 2.8138 27.8463 24 -0.0471272 -0.0254005 0.0038395 
468 2 0.4929 28.7401 24 0.0074393 0.00381583 0.0351914 
37 1 23.4917 -1.3199 0 -0.0107 0.0112324 0.00420692 
39 1 22.6028 -0.2197 0 0.00273943 -0.0130957 0.00894815 
43 1 22.984 -2.6384 0 0.0202404 -0.0174736 -0.0142827 
45 1 21.2071 -0.4393 0 0.00797469 0.00458335 -0.010473 
49 1 23.8777 -3.7174 0.0001 0.017698 0.00128283 -0.00588939 
50 1 21.5973 -2.8392 0 -0.00293347 -0.0140447 -0.00323227 
53 1 20.7195 -1.7528 0 -0.0152991 0.0182304 -0.00483118 
61 2 23.5071 -4.7401 0.0001 -0.0103233 0.069196 -0.0343993 
62 2 21.1863 -3.8463 0 0.0623086 -0.0174416 0.0263354 
65 2 19.6485 -1.9432 0 0.0217314 -0.0106796 0.0590604 
38 1 24.8889 -1.1001 0 0.00313948 -0.00266007 -0.00748185 
44 1 25.7769 -2.1991 0 -0.0101118 0.0124986 -0.0062318 
51 1 25.2575 -3.5004 0.0001 0.0105338 0.0185627 -0.0198495 
52 1 27.1582 -1.9646 0 0.00139552 0.0103747 0.00385786 
55 1 27.6602 -0.6612 0 0.00494457 -0.0179422 0.017825 
63 2 25.9241 -4.3599 0.0001 -0.0077353 0.0312176 -0.0274637 
64 2 27.8586 -2.7969 0 0.0145987 0.00697022 -0.0461384 
67 2 28.7379 -0.5136 0 0.0595342 0.0288365 0.0604957 
41 1 23.1111 1.1001 0 0.00857881 -0.0147718 0.00852055 
47 1 22.2231 2.1991 0 -0.0187781 -0.0126306 -0.000547383 
54 1 20.3398 0.6612 0 -0.00958471 0.0160825 0.0156777 
57 1 20.8418 1.9646 0 0.00506572 8.56535e-05 0.0126032 
58 1 22.7425 3.5004 0 0.0185645 -0.0138779 0.00050112 
66 2 19.2621 0.5136 0 0.043347 0.0226473 -0.0493719 
69 2 20.1414 2.7969 0 0.0428531 -0.000394104 -0.067421 
70 2 22.0759 4.3599 0 0.0190357 0.0722442 -0.0453866 
40 1 25.3972 0.2198 0 -0.00422108 0.00835583 0.00987029 
42 1 24.5083 1.3199 0 0.0165481 -0.00912837 0.0084301 
46 1 26.7929 0.4393 0 0.0174235 0.000886658 0.00756766 
48 1 25.0161 2.6384 0 -0.00338307 0.00754946 0.00701848 
56 1 27.2805 1.7528 0 0.0171922 -0.0152405 -0.00266164 
59 1 26.4027 2.8392 0 -0.0084189 0.00574337 0.00545691 
60 1 24.1223 3.7174 0 0.00727302 -0.00953396 -0.0128585 
68 2 28.3515 1.9432 0 0.0443708 -0.0412755 -0.0365576 
71 2 26.8138 3.8463 0 -0.0447558 0.0081022 -0.00479416 
72 2 24.4929 4.7401 0 0.0626814 -0.0311388 0.0490786 
325 1 23.4917 -1.3199 24 -0.0198097 -0.010793 -0.00457991 
327 1 22.6028 -0.2197 24 -0.00783964 -0.0194967 0.00276578 
331 1 22.984 -2.6384 24 -0.00809977 0.0151715 -0.0156007 
333 1 21.2071 -0.4393 24 -0.0134213 -0.0115546 0.00320193 
337 1 23.8777 -3.7174 24.0001 0.00563696 0.0048715 0.0138997 
338 1 21.5973 -2.8392 24 -0.0183175 -0.0140891 -0.00763335 
341 1 20.7195 -1.7528 24 -0.00384426 -0.000918553 -0.0203973 
349 2 23.5071 -4.7401 24.0001 -0.0504136 -0.0214412 0.0337646 
350 2 21.1863 -3.8463 24 -0.0378629 -0.0441019 -0.0085127 
353 2 19.6485 -1.9432 24 -0.00859963 0.0634695 0.0660687 
326 1 24.8889 -1.1001 24 0.0126521 -0.00446384 -0.0112489 
332 1 25.7769 -2.1991 24 -0.00395986 -0.00803175 -0.0115432 
339 1 25.2575 -3.5004 24.0001 0.0100374 -0.004537 -0.00520258 
340 1 27.1582 -1.9646 24 0.00838764 -0.0153113 0.00139581 
343 1 27.6602 -0.6612 24 0.00361326 0.011363 0.0175781 
351 2 25.9241 -4.3599 24.0001 -0.0597468 -0.0194657 -0.020865 
352 2 27.8586 -2.7969 24 0.0143707 0.0286335 -0.0669895 
355 2 28.7379 -0.5136 24 -0.0506832 0.0160266 0.00949746 
329 1 23.1111 1.1001 24 0.00726398 0.00327596 0.00905279 
335 1 22.2231 2.1991 24 -0.0101252 -0.00717707 0.0205293 
342 1 20.3398 0.6612 24 0.0198659 -0.0109078 0.00221962 
345 1 20.8418 1.9646 24 -0.00573705 -0.0181763 -0.00514385 
346 1 22.7425 3.5004 24 0.00700838 -0.00941108 -0.00687269 
354 2 19.2621 0.5136 24 -0.0660438 0.057451 -0.0308901 
357 2 20.1414 2.7969 24 0.00999949 0.0697838 -0.00355257 
358 2 22.0759 4.3599 24 -0.0518932 -0.0521989 -0.0681512 
328 1 25.3972 0.2198 24 -0.00125896 -1.99043e-05 0.00945118 
330 1 24.5083 1.3199 24 -0.0164046 0.0125171 0.0160102 
334 1 26.7929 0.4393 24 -0.00183916 0.00934151 0.0197813 
336 1 25.0161 2.6384 24 -0.000667868 0.00884459 -0.0125983 
344 1 27.2805 1.7528 24 -0.0137654 0.0135738 -0.0162747 
347 1 26.4027 2.8392 24 -0.014139 -0.00678822 0.00761811 
348 1 24.1223 3.7174 24 0.00529494 -0.0187915 -0.00767402 
356 2 28.3515 1.9432 24 0.0394749 0.0310299 -0.0419014 
359 2 26.8138 3.8463 24 0.0211711 -0.00825757 -0.0562811 
360 2 24.4929 4.7401 24 -0.0197826 -0.05013 0.0185733 
181 1 23.4917 22.6801 0 -0.00205466 0.0118424 0.00255949 
183 1 22.6028 23.7803 0 0.0106105 -0.0109357 -0.0142808 
187 1 22.984 21.3616 0 0.00938594 0.000822342 -0.00258205 
189 1 21.2071 23.5607 0 -0.0203711 -0.0153757 -0.00951879 
193 1 23.8777 20.2826 0.0001 -0.0206013 -0.0130182 -0.00749402 
194 1 21.5973 21.1608 0 0.00421598 0.00972284 0.00393228 
197 1 20.7195 22.2472 0 -0.011602 0.0067188 0.00787175 
205 2 23.5071 19.2599 0.0001 -0.0140646 -0.00808542 -0.0177652 
206 2 21.1863 20.1537 0 0.0147733 -0.0559284 0.0528259 
209 2 19.6485 22.0568 0 0.0290862 -0.00772836 -0.0114537 
182 1 24.8889 22.8999 0 -0.0088762 0.0214742 -0.0146588 
188 1 25.7769 21.8009 0 -0.016409 0.0199853 0.00132377 
195 1 25.2575 20.4996 0.0001 -5.83841e-05 -0.00264808 -0.0118549 
196 1 27.1582 22.0354 0 -0.0200199 -0.00270205 -0.0129277 
199 1 27.6602 23.3388 0 -0.00546319 0.0130308 0.000191385 
207 2 25.9241 19.6401 0.0001 0.028103 0.0249618 0.0264801 
208 2 27.8586 21.2031 0 -0.00314166 0.0170403 0.0604693 
211 2 28.7379 23.4864 0 0.0466226 -0.0205799 -0.0499127 
185 1 23.1111 25.1001 0 -0.00979797 0.0147728 -0.00409462 
191 1 22.2231 26.1991 0 -0.00769246 -0.0169532 0.000637713 
198 1 20.3398 24.6612 0 -0.0149546 0.000189637 -0.0107072 
201 1 20.8418 25.9646 0 -0.00851733 -0.00116907 0.0111895 
202 1 22.7425 27.5004 0 -0.0173839 -0.0134416 0.00148164 
210 2 19.2621 24.5136 0 0.0400449 0.0483088 0.0417867 
213 2 20.1414 26.7969 0 -0.0663989 -0.0592609 -0.00459483 
214 2 22.0759 28.3599 0 -0.0127493 -0.0260217 -0.016489 
184 1 25.3972 24.2198 0 -0.0198555 0.00104944 -0.0158877 
186 1 24.5083 25.3199 0 0.0141305 0.00829759 0.0194541 
190 1 26.7929 24.4393 0 -0.00720694 -0.0116059 0.00714194 
192 1 25.0161 26.6384 0 -0.0190666 -0.000305415 -0.0116564 
200 1 27.2805 25.7528 0 0.0163748 0.00340445 -0.0142336 
203 1 26.4027 26.8392 0 -0.0029301 0.00128685 0.0203543 
204 1 24.1223 27.7174 0 -0.0172256 0.0101952 -0.00576938 
212 2 28.3515 25.9432 0 -0.0374869 -0.00499623 -0.0531161 
215 2 26.8138 27.8463 0 0.0527084 0.0655181 -0.044777 
216 2 24.4929 28.7401 0 0.0655026 -0.00420231 0.0159453 
469 1 23.4917 22.6801 24 -0.0111601 0.0205589 0.00459655 
471 1 22.6028 23.7803 24 0.00355486 0.0182873 0.00527648 
475 1 22.984 21.3616 24 0.0151123 -0.00556699 -0.01853 
477 1 21.2071 23.5607 24 0.00405082 -0.00667429 -0.0133091 
481 1 23.8777 20.2826 24.0001 -0.0127758 0.00698305 0.00120429 
482 1 21.5973 21.1608 24 -0.0103662 0.0190834 -0.00103694 
485 1 20.7195 22.2472 24 -0.0107886 0.00449504 -0.0119802 
493 2 23.5071 19.2599 24.0001 -0.0301891 0.0400853 -0.0037368 
494 2 21.1863 20.1537 24 -0.00808439 0.0162552 -0.00289621 
497 2 19.6485 22.0568 24 -0.039056 0.0296965 -0.043687 
470 1 24.8889 22.8999 24 0.00314179 -0.00499992 -0.00151001 
476 1 25.7769 21.8009 24 0.0203328 0.0105932 0.0112888 
483 1 25.2575 20.4996 24.0001 0.0055702 -0.00513665 0.0066844 
484 1 27.1582 22.0354 24 0.00408049 -0.00216458 0.000772981 
487 1 27.6602 23.3388 24 0.0194278 -0.00287139 -0.0172605 
495 2 25.9241 19.6401 24.0001 -0.0109606 0.0632114 0.00938406 
496 2 27.8586 21.2031 24 -0.0109204 0.0254962 0.0153442 
499 2 28.7379 23.4864 24 -0.0316565 0.0718825 0.0129406 
473 1 23.1111 25.1001 24 -0.00266254 0.0091016 -0.0174521 
479 1 22.2231 26.1991 24 -0.016437 0.00342424 -0.0109882 
486 1 20.3398 24.6612 24 0.014916 -0.00990796 0.00266899 
489 1 20.8418 25.9646 24 0.0114863 0.00625179 -0.0160138 
490 1 22.7425 27.5004 24 0.0123608 0.00106285 0.0034721 
498 2 19.2621 24.5136 24 -0.0277109 0.0133462 0.0641684 
501 2 20.1414 26.7969 24 -0.0639693 -0.0479316 -0.00143691 
502 2 22.0759 28.3599 24 -0.0349558 0.00115976 0.0706857 
472 1 25.3972 24.2198 24 -0.0187437 -0.0108002 -0.00238274 
474 1 24.5083 25.3199 24 0.014269 -0.0108696 -0.0153202 
478 1 26.7929 24.4393 24 0.0019266 -0.000899014 0.019705 
480 1 25.0161 26.6384 24 0.00828462 -0.0169736 -0.0121509 
488 1 27.2805 25.7528 24 -0.0189291 0.00369294 0.0158202 
491 1 26.4027 26.8392 24 0.0084549 0.00310222 0.0131786 
492 1 24.1223 27.7174 24 0.0116475 -0.00380333 0.0111974 
500 2 28.3515 25.9432 24 -0.0424467 -0.00593733 -0.0266871 
503 2 26.8138 27.8463 24 0.0268609 -0.0109241 -0.0545641 
504 2 24.4929 28.7401 24 0.00469507 -0.0151899 0.0469249 
73 1 47.4917 -1.3199 0 -0.00226247 0.0198898 0.00328082 
75 1 46.6028 -0.2197 0 -0.0165771 -0.00439882 0.0107432 
79 1 46.984 -2.6384 0 -0.0171509 -0.0110354 -0.00158201 
81 1 45.2071 -0.4393 0 0.0192054 0.00841574 -0.0129172 
85 1 47.8777 -3.7174 0.0001 -0.0206215 0.0174627 -0.0154172 
86 1 45.5973 -2.8392 0 -0.0091038 -0.0148783 -0.0103079 
89 1 44.7195 -1.7528 0 -0.00841355 0.013288 -0.000283638 
97 2 47.5071 -4.7401 0.0001 0.066887 -0.000765574 -0.0303844 
98 2 45.1863 -3.8463 0 0.0275526 0.0523999 0.00177978 
101 2 43.6485 -1.9432 0 -0.0558775 0.0689683 -0.00846421 
74 1 48.8889 -1.1001 0 0.0060826 -0.000886824 0.0186562 
80 1 49.7769 -2.1991 0 -0.0122983 0.000287331 -0.0161702 
87 1 49.2575 -3.5004 0.0001 -0.00876885 0.0135918 -0.00151717 
88 1 51.1582 -1.9646 0 0.0067116 -0.0139958 -0.00434346 
91 1 51.6602 -0.6612 0 0.0102062 -0.0107459 0.00445719 
99 2 49.9241 -4.3599 0.0001 -0.0684954 -0.0394138 -0.00607871 
100 2 51.8586 -2.7969 0 0.0261641 -0.0178939 -0.00970992 
103 2 52.7379 -0.5136 0 0.0423669 -0.0353629 -0.00713156 
77 1 47.1111 1.1001 0 0.0103051 0.00480464 0.00206814 
83 1 46.2231 2.1991 0 -0.0112889 -0.00335968 0.0131944 
90 1 44.3398 0.6612 0 -0.0186142 -0.0165251 -0.0120687 
93 1 44.8418 1.9646 0 -0.0123853 0.0211021 -0.00817946 
94 1 46.7425 3.5004 0 0.0158148 0.0215947 -0.00779425 
102 2 43.2621 0.5136 0 0.0415291 0.0142815 -0.0596489 
105 2 44.1414 2.7969 0 0.0438055 0.0198522 -0.0668237 
106 2 46.0759 4.3599 0 0.0670855 0.0522105 -0.0400647 
76 1 49.3972 0.2198 0 0.0185523 -0.0134176 -0.00710158 
78 1 48.5083 1.3199 0 0.0111521 -0.0106077 -0.0197526 
82 1 50.7929 0.4393 0 -0.000655258 0.0148561 -0.00434854 
84 1 49.0161 2.6384 0 -0.0113837 0.0101226 0.00938336 
92 1 51.2805 1.7528 0 0.0084456 0.0116419 0.00985924 
95 1 50.4027 2.8392 0 -0.0171898 -0.00458507 0.0105566 
96 1 48.1223 3.7174 0 0.0109946 0.0199569 0.0187563 
104 2 52.3515 1.9432 0 0.030037 -0.013402 -0.0210331 
107 2 50.8138 3.8463 0 0.0485019 0.020406 -0.0380484 
108 2 48.4929 4.7401 0 -0.0348146 -0.0515167 -0.0216795 
361 1 47.4917 -1.3199 24 -0.00202939 -0.016499 0.0147431 
363 1 46.6028 -0.2197 24 0.00265368 -0.0129397 -0.00538805 
367 1 46.984 -2.6384 24 0.00777115 0.00190511 -0.00828103 
369 1 45.2071 -0.4393 24 0.00664015 0.0208368 -0.0192008 
373 1 47.8777 -3.7174 24.0001 -0.0125621 0.0141228 -0.0151026 
374 1 45.5973 -2.8392 24 0.00653705 0.0177579 0.00396571 
377 1 44.7195 -1.7528 24 0.0151293 -0.00758934 0.0106326 
385 2 47.5071 -4.7401 24.0001 0.0206351 -0.0246055 -0.0523681 
386 2 45.1863 -3.8463 24 -0.0549541 0.0298762 -0.0205962 
389 2 43.6485 -1.9432 24 -0.0338835 0.037856 0.0681151 
362 1 48.8889 -1.1001 24 -0.0109681 -0.00638671 0.00145011 
368 1 49.7769 -2.1991 24 -0.00260157 0.00420341 -0.012385 
375 1 49.2575 -3.5004 24.0001 -0.0148434 0.0157012 -0.00879289 
376 1 51.1582 -1.9646 24 0.00224829 0.0104889 -0.0125732 
379 1 51.6602 -0.6612 24 0.00297288 -0.0020881 0.00942133 
387 2 49.9241 -4.3599 24.0001 -0.0354008 -0.0551778 -0.0354235 
388 2 51.8586 -2.7969 24 -0.0227199 -0.031368 0.0510642 
391 2 52.7379 -0.5136 24 -0.0675478 0.0424427 -0.0633907 
365 1 47.1111 1.1001 24 0.014282 0.000720441 0.0145311 
371 1 46.2231 2.1991 24 0.0047062 0.0118432 0.015824 
378 1 44.3398 0.6612 24 0.0120811 -0.00543331 0.00423387 
381 1 44.8418 1.9646 24 0.000772444 -0.000670973 -0.0190151 
382 1 46.7425 3.5004 24 -0.0201485 0.0188702 -0.000961945 
390 2 43.2621 0.5136 24 -0.0708435 0.0326206 0.000862638 
393 2 44.1414 2.7969 24 0.0323745 0.0203137 -0.0181106 
394 2 46.0759 4.3599 24 0.0604635 -0.0535979 -0.0311164 
364 1 49.3972 0.2198 24 -0.0198634 -0.00733387 -0.0199957 
366 1 48.5083 1.3199 24 0.00894854 0.0215318 0.00558191 
370 1 50.7929 0.4393 24 -0.0106321 -0.00178291 -0.00930734 
372 1 49.0161 2.6384 24 -0.00710286 0.00789214 0.00058909 
380 1 51.2805 1.7528 24 -7.96501e-05 0.0106005 0.0101541 
383 1 50.4027 2.8392 24 -0.0106463 0.0073632 0.00660552 
384 1 48.1223 3.7174 24 -0.00384321 0.0167445 -0.0200795 
392 2 52.3515 1.9432 24 -0.0419868 0.0147087 -0.0171696 
395 2 50.8138 3.8463 24 -2.45343e-05 0.0229844 0.0493552 
396 2 48.4929 4.7401 24 -0.0686733 -0.0324135 0.0349253 
217 1 47.4917 22.6801 0 -0.0204856 -0.00429756 -0.017215 
219 1 46.6028 23.7803 0 0.00331263 -0.0166269 0.00646626 
223 1 46.984 21.3616 0 0.0148127 -0.0169882 -0.0116471 
225 1 45.2071 23.5607 0 0.0132357 0.0018499 0.0110387 
229 1 47.8777 20.2826 0.0001 0.00312999 0.00254996 -0.00196091 
230 1 45.5973 21.1608 0 0.00329508 0.0177461 0.0107584 
233 1 44.7195 22.2472 0 0.00725626 -0.00285943 0.0191345 
241 2 47.5071 19.2599 0.0001 0.041855 0.0667644 0.0622689 
242 2 45.1863 20.1537 0 0.0164644 -0.0384979 -0.0271809 
245 2 43.6485 22.0568 0 -0.0635733 0.0430895 -0.0399348 
218 1 48.8889 22.8999 0 0.00470927 -0.0189455 -0.000747923 
224 1 49.7769 21.8009 0 0.0117375 -0.0135059 -0.00737586 
231 1 49.2575 20.4996 0.0001 -0.0145639 0.0188639 0.0166471 
232 1 51.1582 22.0354 0 -0.0116367 0.000866377 -0.00382303 
235 1 51.6602 23.3388 0 -0.0124018 -0.00910758 -0.0128944 
243 2 49.9241 19.6401 0.0001 0.057814 -0.0506793 0.0633397 
244 2 51.8586 21.2031 0 0.027635 0.010536 -0.0651669 
247 2 52.7379 23.4864 0 0.00737075 -0.00634599 -0.043774 
221 1 47.1111 25.1001 0 -0.00310286 -0.0193062 -0.0089271 
227 1 46.2231 26.1991 0 -0.00561603 -0.00217596 0.0154702 
234 1 44.3398 24.6612 0 -0.00914804 -0.0169376 0.0148141 
237 1 44.8418 25.9646 0 0.0172629 0.020122 -0.0061454 
238 1 46.7425 27.5004 0 0.0186419 0.00968791 -0.00654751 
246 2 43.2621 24.5136 0 -0.0531109 0.0345651 -0.00424543 
249 2 44.1414 26.7969 0 0.0585864 -0.0577744 7.62713e-05 
250 2 46.0759 28.3599 0 -0.00969497 0.0667211 0.0483554 
220 1 49.3972 24.2198 0 0.00315863 -0.0102259 0.0130699 
222 1 48.5083 25.3199 0 0.0116704 0.0112303 0.0106107 
226 1 50.7929 24.4393 0 0.00136427 0.020522 0.00248127 
228 1 49.0161 26.6384 0 0.0183691 -0.00431417 -0.0080724 
236 1 51.2805 25.7528 0 0.0114403 0.015631 0.00514139 
239 1 50.4027 26.8392 0 0.01475 0.000205606 0.0105776 
240 1 48.1223 27.7174 0 -0.0069184 0.019227 -0.0170528 
248 2 52.3515 25.9432 0 -0.0623881 -0.0205018 -0.0214653 
251 2 50.8138 27.8463 0 -0.0297404 0.0165895 0.0495284 
252 2 48.4929 28.7401 0 -0.0121029 -0.010171 0.0424323 
505 1 47.4917 22.6801 24 0.0145953 -0.00449698 0.00837888 
507 1 46.6028 23.7803 24 -0.00230131 -0.015085 0.0155985 
511 1 46.984 21.3616 24 0.00319078 -0.00533816 -0.00284597 
513 1 45.2071 23.5607 24 -0.00181726 0.00675626 0.0197285 
517 1 47.8777 20.2826 24.0001 -0.00624674 -0.0179848 0.000881729 
518 1 45.5973 21.1608 24 0.00479045 -0.0136234 -0.00580576 
521 1 44.7195 22.2472 24 0.0112136 -0.00569319 0.00198977 
529 2 47.5071 19.2599 24.0001 0.06048 -0.0620826 -0.0416633 
530 2 45.1863 20.1537 24 0.01357 -0.0114346 -0.0692169 
533 2 43.6485 22.0568 24 0.0348798 0.0207619 -0.0501053 
506 1 48.8889 22.8999 24 -0.0169747 -0.0137302 0.011781 
512 1 49.7769 21.8009 24 -0.00412659 -0.00979732 0.0089826 
519 1 49.2575 20.4996 24.0001 0.00226612 -0.0193725 -0.0113292 
520 1 51.1582 22.0354 24 0.000220724 -0.006783 0.0129458 
523 1 51.6602 23.3388 24 -0.00614452 0.0114539 -0.0201855 
531 2 49.9241 19.6401 24.0001 -0.047376 -0.0667219 0.0613901 
532 2 51.8586 21.2031 24 -0.0532296 0.0384273 -0.0365326 
535 2 52.7379 23.4864 24 0.00346237 -0.036585 0.00670175 
509 1 47.1111 25.1001 24 0.0194981 -0.0143028 -0.0161749 
515 1 46.2231 26.1991 24 -0.00827405 0.010284 0.00457802 
522 1 44.3398 24.6612 24 0.0119912 0.00773748 -0.00410318 
525 1 44.8418 25.9646 24 0.012598 -0.00854882 -0.0119176 
526 1 46.7425 27.5004 24 -0.00384434 -0.00221786 0.0113637 
534 2 43.2621 24.5136 24 0.00817751 -0.00698724 0.0266418 
537 2 44.1414 26.7969 24 0.0217904 -0.0183911 0.054895 
538 2 46.0759 28.3599 24 -0.0246095 0.039766 0.0531271 
508 1 49.3972 24.2198 24 -0.00876044 -0.00981405 0.0160388 
510 1 48.5083 25.3199 24 -0.0172229 0.0144918 0.00973764 
514 1 50.7929 24.4393 24 0.00760156 -0.00658613 -0.0143316 
516 1 49.0161 26.6384 24 -0.0199353 0.0187181 -0.00276523 
524 1 51.2805 25.7528 24 -0.00381458 0.00372814 -0.0102871 
527 1 50.4027 26.8392 24 -0.0149377 -0.00344018 0.0193224 
528 1 48.1223 27.7174 24 0.0190791 -0.0148656 -0.0031657 
536 2 52.3515 25.9432 24 0.0117224 0.0514353 0.0618786 
539 2 50.8138 27.8463 24 -0.047731 -0.0396345 -0.00430545 
540 2 48.4929 28.7401 24 -0.00218244 0.00973551 0.0412744 
109 1 71.4917 -1.3199 0 0.00759564 0.0175498 0.00562775 
111 1 70.6028 -0.2197 0 -0.0105217 0.000537995 -0.00413549 
115 1 70.984 -2.6384 0 -0.0174293 0.00461214 0.0203698 
117 1 69.2071 -0.4393 0 0.0188924 0.0194461 -0.00048543 
121 1 71.8777 -3.7174 0.0001 0.0140832 -0.00386029 0.00105559 
122 1 69.5973 -2.8392 0 0.00272271 -0.00589475 -0.0084312 
125 1 68.7195 -1.7528 0 0.00109417 0.0113345 -0.00902087 
133 2 71.5071 -4.7401 0.0001 0.00334708 0.0239965 -0.068455 
134 2 69.1863 -3.8463 0 0.0541657 0.00743253 0.0161115 
137 2 67.6485 -1.9432 0 -0.0481699 0.00709551 0.0612217 
110 1 72.8889 -1.1001 0 -0.00438526 0.00836109 0.0158336 
116 1 73.7769 -2.1991 0 -0.00418804 -0.0129171 0.00381333 
123 1 73.2575 -3.5004 0.0001 -0.0142924 0.0109156 -0.00620279 
124 1 75.1582 -1.9646 0 0.0013492 0.0143645 0.0121708 
127 1 75.6602 -0.6612 0 0.0148053 -0.0166193 0.0108324 
135 2 73.9241 -4.3599 0.0001 0.0115292 -0.0557838 0.056918 
136 2 75.8586 -2.7969 0 0.0052949 -0.06792 0.050401 
139 2 76.7379 -0.5136 0 -0.0306491 0.0166588 -0.0699991 
113 1 71.1111 1.1001 0 0.0136123 -0.0116199 0.0180086 
119 1 70.2231 2.1991 0 -0.0131616 -0.0109731 0.015933 
126 1 68.3398 0.6612 0 0.000701333 -0.00146555 0.0116816 
129 1 68.8418 1.9646 0 -0.0167073 -0.00952549 0.005966 
130 1 70.7425 3.5004 0 -0.00291489 0.00991657 0.00633353 
138 2 67.2621 0.5136 0 -0.0275773 -0.0255853 0.0379094 
141 2 68.1414 2.7969 0 0.0378657 -0.0381898 0.0120883 
142 2 70.0759 4.3599 0 0.0489719 0.0700035 -0.022442 
112 1 73.3972 0.2198 0 -0.0138008 -0.00467479 -0.0148008 
114 1 72.5083 1.3199 0 0.0143452 -0.00815503 0.0168403 
118 1 74.7929 0.4393 0 0.00823298 0.0211434 -0.0136629 
120 1 73.0161 2.6384 0 0.0125417 -0.00667934 -0.0158912 
128 1 75.2805 1.7528 0 -0.00737274 0.00238468 -0.0205122 
131 1 74.4027 2.8392 0 -0.00363894 -0.00963666 -0.00909015 
132 1 72.1223 3.7174 0 -0.0104759 -0.0113728 0.011867 
140 2 76.3515 1.9432 0 -0.0618429 0.00793296 0.00554832 
143 2 74.8138 3.8463 0 0.0589555 0.00798977 -0.0388218 
144 2 72.4929 4.7401 0 -0.0439553 0.0445453 0.0202533 
397 1 71.4917 -1.3199 24 0.0165639 0.0102324 0.000835948 
399 1 70.6028 -0.2197 24 0.00781092 0.011362 0.00105359 
403 1 70.984 -2.6384 24 0.00161406 0.0179339 -0.00347855 
405 1 69.2071 -0.4393 24 -0.0205633 0.00873274 0.00204542 
409 1 71.8777 -3.7174 24.0001 0.0129715 0.00927161 -0.00185159 
410 1 69.5973 -2.8392 24 -0.0127333 0.0207901 0.0192616 
413 1 68.7195 -1.7528 24 0.015353 0.00343486 0.00275384 
421 2 71.5071 -4.7401 24.0001 0.0219851 -0.0297898 0.0269279 
422 2 69.1863 -3.8463 24 -0.0418992 0.0604194 0.0450445 
425 2 67.6485 -1.9432 24 -0.01646 -0.0167065 -0.0365734 
398 1 72.8889 -1.1001 24 0.0178632 0.0195379 0.0189223 
404 1 73.7769 -2.1991 24 -0.0101008 -0.00907936 0.00838357 
411 1 73.2575 -3.5004 24.0001 -0.0136219 -0.00519288 0.00896098 
412 1 75.1582 -1.9646 24 0.00555265 -0.0118507 0.0104613 
415 1 75.6602 -0.6612 24 -0.00983913 -0.0179583 -0.00591422 
423 2 73.9241 -4.3599 24.0001 -0.00848792 -0.0574608 -0.0109196 
424 2 75.8586 -2.7969 24 0.0247814 0.00780881 0.0599145 
427 2 76.7379 -0.5136 24 -0.051033 -0.01133 -0.0247074 
401 1 71.1111 1.1001 24 0.00063868 0.0163513 0.00353406 
407 1 70.2231 2.1991 24 0.00424511 0.00509676 0.0107852 
414 1 68.3398 0.6612 24 0.00388924 -0.00409754 0.00856309 
417 1 68.8418 1.9646 24 0.00850918 0.00927976 0.011513 
418 1 70.7425 3.5004 24 -0.017481 0.00184382 -0.00873028 
426 2 67.2621 0.5136 24 0.0624205 0.00821113 -0.0295738 
429 2 68.1414 2.7969 24 0.0698152 -0.0310681 -0.0478445 
430 2 70.0759 4.3599 24 0.0378957 0.0379675 -0.0561218 
400 1 73.3972 0.2198 24 0.0102766 0.0192389 0.0184171 
402 1 72.5083 1.3199 24 0.0202463 -0.00156704 -0.00547253 
406 1 74.7929 0.4393 24 -4.8737e-05 -0.00525014 -0.00616341 
408 1 73.0161 2.6384 24 -0.0177836 -0.0186986 -0.0114902 
416 1 75.2805 1.7528 24 -0.00854533 -0.0187403 -0.0109832 
419 1 74.4027 2.8392 24 -0.016396 -0.00844293 -0.00314065 
420 1 72.1223 3.7174 24 -0.0145391 -0.0165514 -0.00116433 
428 2 76.3515 1.9432 24 -0.0490375 -0.0159566 0.00612771 
431 2 74.8138 3.8463 24 -0.0553187 0.0389819 0.00768765 
432 2 72.4929 4.7401 24 0.0245382 0.059653 0.0106326 
253 1 71.4917 22.6801 0 0.0142331 0.00316866 0.0177765 
255 1 70.6028 23.7803 0 0.00348166 -0.0175435 0.00455069 
259 1 70.984 21.3616 0 0.00625865 -0.00740083 0.00766845 
261 1 69.2071 23.5607 0 0.0133454 -0.00824018 -0.0138955 
265 1 71.8777 20.2826 0.0001 -0.00469145 0.0104215 0.00766644 
266 1 69.5973 21.1608 0 -0.00609825 0.0065802 -0.0151798 
269 1 68.7195 22.2472 0 0.00150269 -0.00057211 -0.00481837 
277 2 71.5071 19.2599 0.0001 0.0394256 0.0589327 0.0369607 
278 2 69.1863 20.1537 0 0.0101616 -0.0608887 0.0418276 
281 2 67.6485 22.0568 0 -0.000645357 0.0084536 0.0491091 
254 1 72.8889 22.8999 0 -0.0166295 -0.0194195 -0.01895 