ITEM: TIMESTEP
630000
ITEM: NUMBER OF ATOMS
576
ITEM: BOX BOUNDS pp pp pp
-1.2000000000000000e+01 8.4000000000000000e+01
-1.2000000000000000e+01 3.6000000000000000e+01
-1.2000000000000000e+01 3.6000000000000000e+01
ITEM: ATOMS id type x y z vx vy vz 
130 1 6.61552 0.152902 0.55204 -0.0111557 0.00688408 0.0194182 
126 1 10.4011 0.581559 -0.0866515 -0.0073971 -0.0214892 0.013218 
141 2 8.93374 -1.07806 -0.739217 -0.0177575 -0.00228928 -0.0555192 
129 1 9.03379 -0.0549256 0.0185227 0.00660969 -0.000826057 0.0171376 
117 1 10.2635 1.95447 0.422856 -0.00671942 -0.0162057 0.00620114 
119 1 8.01801 0.826407 0.325391 0.0157826 -0.00790739 0.0414581 
125 1 11.2828 2.82947 -0.0218423 -0.0128876 0.0134961 0.001887 
138 2 11.398 0.242859 -0.918757 0.0775177 -0.0689679 0.0299297 
550 1 11.9686 4.38922 6.29065 0.000507462 0.00294845 -0.00556667 
140 2 6.71199 -0.440532 6.03819 0.0681686 0.00809858 -0.0982021 
142 2 4.97106 -0.343424 1.68329 -0.0881516 0.0753535 -0.025137 
128 1 6.44671 0.168755 5.02421 -0.00106195 -0.0142278 -0.00857924 
143 2 4.71583 0.628153 3.72601 0.0492787 -0.00137595 -0.0270549 
131 1 5.7979 0.867089 4.10212 0.00107801 -0.0151445 -0.00161258 
113 1 7.85012 1.98033 1.14049 0.00855391 -0.00356031 0.013252 
111 1 9.07263 2.76457 0.901514 -0.00272412 -0.0193234 -0.00881494 
560 1 10.9324 3.86351 7.04127 0.013223 -0.00609904 -0.00596491 
132 1 5.79315 0.560652 1.59183 0.0109184 0.00960578 0.00528178 
109 1 9.09989 4.06556 1.60946 -0.0117572 0.00521885 0.00901841 
115 1 10.5178 4.40236 1.6062 -0.00957029 -0.00439 -0.00317759 
114 1 6.99327 2.4515 2.4388 -0.0157178 -0.00542048 -0.000733278 
120 1 6.43525 1.41726 2.70464 -0.0195239 -0.0223261 0.0165457 
121 1 11.0153 5.77149 2.44544 -0.0123734 -0.000524327 -0.0206005 
112 1 7.54931 3.4504 3.46669 0.0060411 -0.00346401 0.0155374 
110 1 8.43382 4.38725 2.88218 -0.0188431 -0.0010943 0.0269201 
116 1 8.61701 5.93979 3.32679 0.0168133 0.0267376 0.0131684 
124 1 8.03417 6.73574 4.32177 -0.0183737 0.0199132 -0.0107817 
139 2 6.2249 3.94471 5.16042 -0.0647718 0.0804946 -0.0409918 
118 1 6.75899 4.52465 4.20841 -0.00183642 0.00953201 0.00259691 
177 2 5.86655 6.37079 4.13641 -0.0119998 0.0163364 0.0222116 
127 1 6.7169 6.02625 4.38752 0.00372475 0.00115986 0.010068 
123 1 10.0421 6.55668 3.00029 -0.00163415 0.0340767 -0.00434434 
136 2 8.50866 7.61365 4.73034 0.010216 -0.0936201 0.020432 
564 1 11.8321 0.144254 9.11394 0.00426581 0.00985388 0.0330722 
552 1 10.1726 3.27285 7.9846 -0.00217318 -0.00135687 -0.00891146 
563 1 9.48222 2.41823 8.74387 -0.000491255 -0.0249451 0.0387284 
572 2 10.3572 1.69335 9.23582 -0.043757 -0.000181575 -0.0438886 
576 2 11.1452 -0.20857 9.89346 0.0262615 0.0849295 0.0325372 
122 1 11.2921 4.17475 0.452114 -0.0205051 0.00464327 -0.00749957 
575 2 11.1333 1.82513 6.75707 -0.058799 0.0587935 -0.015299 
546 1 11.8073 1.85681 5.86972 -0.0137658 -0.0166979 -0.0115971 
134 2 11.8606 4.88984 0.00992185 -0.053555 -0.0277547 -0.0374553 
137 2 11.6962 2.31142 -0.973469 -0.0863272 -0.00686964 -0.0683347 
571 2 11.9561 6.70793 5.59109 0.0169748 -0.0307726 -0.0485802 
262 1 35.9763 -7.09937 -5.77874 0.00911353 -0.0134841 -0.00464742 
331 1 33.7038 -11.7634 2.93705 -0.00333488 0.0224196 0.0170928 
545 1 12.8748 0.798629 5.87736 -0.0186867 -0.00137337 0.00917127 
284 2 33.9939 -7.25601 -5.38236 -0.0260712 -0.0122855 -0.0295623 
271 1 34.857 -6.64472 -5.07826 0.0157603 0.0183694 0.000689902 
352 2 26.8202 7.25797 -4.79502 0.0949565 0.0189773 -0.00550133 
574 2 27.1202 7.73648 -5.51238 -0.0124091 0.0748605 0.0661562 
513 1 20.7272 9.02823 -5.58738 0.0152469 0.012159 -0.0189299 
507 1 21.6191 11.1182 -5.9949 -0.0251355 -0.00244506 0.0322425 
522 1 21.3443 9.83371 -6.6238 -0.00270056 -0.00800636 -0.00947138 
525 1 20.9558 10.1391 -8.01659 0.0214161 0.00550821 0.00292053 
534 2 20.0465 9.3755 -7.87154 0.000679236 0.082592 -0.141804 
515 1 21.8454 11.35 -8.26129 -0.00103994 -0.0299401 0.0142677 
539 2 15.9523 -3.12791 -4.57603 -0.0117596 -0.0430316 -0.000657863 
179 2 15.5408 -2.65083 -5.43584 0.0243692 0.0179886 -0.0157322 
280 2 34.0175 -4.84159 -4.3032 0.0220708 0.0625102 0.029997 
268 1 34.806 -5.3427 -4.66598 0.00590313 0.0162093 0.000279179 
279 2 35.4589 -2.94206 -3.93476 -0.0375743 0.0406294 -0.0692092 
505 1 20.7317 11.927 -5.26167 0.00631935 0.0255967 -0.012337 
287 2 35.3037 -8.95084 -7.09374 -0.0806284 0.0286595 -0.00203191 
344 1 32.5754 -11.7902 9.04256 0.00220262 0.00813598 -0.00979033 
533 2 19.8551 7.71647 -4.34146 0.00311301 0.108772 0.0532253 
521 1 19.9982 8.77976 -4.44816 -0.0319989 -0.0193291 0.0289797 
530 2 18.8767 9.94775 -3.15846 0.0654812 0.0462678 0.0730311 
511 1 19.8952 11.5501 -4.1068 0.00127135 -0.00786475 0.0155137 
518 1 19.7999 10.1235 -3.83679 0.0188694 0.00509134 0.0193029 
566 2 12.3066 -2.36893 0.661734 -0.0171227 -0.0517313 -0.00341306 
562 1 12.3227 -0.0153497 7.82191 0.00189258 -0.0118035 -0.0194792 
350 2 33.4801 -11.1401 0.637431 0.0628319 0.0325758 0.0248506 
325 1 33.2814 -11.2822 4.29457 -0.0172354 0.000192977 0.00455085 
353 2 32.1418 -8.97307 1.12438 0.0360179 0.0496603 0.0677563 
338 1 33.3149 -10.8134 1.87184 0.00921087 -0.0182643 -0.00257926 
345 1 31.7777 -6.96562 4.53239 -0.01229 -0.0105839 0.00250414 
341 1 32.5036 -9.71058 1.93995 -0.0257767 -0.0058386 0.00787522 
333 1 32.1478 -9.12013 3.19271 -0.00860137 -0.00461404 0.00241114 
327 1 32.7657 -9.82118 4.36176 0.0260848 0.0142572 -0.011599 
342 1 31.7544 -7.78337 3.37777 -0.0122958 -0.00885899 -0.0220195 
354 2 31.6194 -7.25083 2.41893 0.067117 0.030821 -0.00401428 
216 2 31.448 -5.83928 4.60432 -0.0157563 -0.094993 0.0269565 
335 1 32.091 -7.91684 5.65314 -0.00718005 0.0205279 0.00613028 
570 2 12.9577 -2.92985 3.62727 0.0362202 -0.0189716 0.104136 
558 1 13.2315 -1.90945 4.66318 0.000669033 0.0182731 -0.0354034 
549 1 13.2607 -0.768613 3.98106 0.00300497 -0.012338 -0.005586 
554 1 12.8696 -1.60683 2.49058 0.00765707 0.00147937 -0.013367 
557 1 12.8686 -2.34214 1.64927 0.00293028 0.001403 0.00126371 
421 2 12.3056 1.25865 9.58769 -0.0633346 -0.0185557 -0.0774775 
544 1 12.3499 3.14502 5.52652 0.016399 -0.03038 -0.0130271 
569 2 12.6041 0.736947 1.48479 -0.0690886 0.0335324 -0.0730432 
548 1 13.5186 4.20896 1.90995 -0.0291643 -0.00533576 -0.000407339 
556 1 12.5266 5.48046 4.08346 0.00543016 0.0183935 0.0311071 
559 1 12.328 5.42672 5.4519 -0.00424924 0.0222119 -0.00748919 
172 2 24.8502 -6.25438 -11.6277 -0.0480489 -0.0783426 -0.0326416 
543 1 12.7188 0.442498 4.47229 -0.018473 0.0254921 0.0294347 
555 1 12.9134 4.38085 3.21969 0.0033473 -0.0251096 0.0142765 
541 1 12.6865 1.72716 3.7387 -0.00555738 -0.0143979 0.00982522 
547 1 12.8257 1.67868 2.12547 -0.0120303 0.0262497 -0.0126288 
553 1 13.3205 2.78385 1.55721 -0.010515 0.00420261 -0.00710869 
542 1 12.5242 3.00514 4.0092 0.0142179 -0.0156569 0.00946057 
567 2 13.9903 4.83947 1.02912 -0.00662758 -0.0662797 -0.05343 
565 2 13.1218 3.17515 0.445957 0.0181364 -0.0049504 0.0104394 
568 2 12.7476 6.65868 4.2693 -0.0654694 0.0505683 0.00854397 
509 1 22.2236 12.0106 -7.20819 0.0156407 0.0334344 0.00478783 
359 2 31.9884 -10.298 10.4404 -0.0510304 0.0360271 -0.0755323 
346 1 32.4227 -7.38395 6.95393 -0.0112486 0.0112273 -0.0153208 
347 1 32.266 -10.398 9.43217 0.014758 0.00488031 0.0219558 
330 1 32.6856 -10.218 6.84266 0.0146027 -0.0106428 0.0163529 
360 2 33.2146 -8.01991 9.01867 -0.0279272 0.0509005 -0.0286838 
348 1 32.9683 -8.25343 7.89347 0.00980802 -0.00817567 -0.0102449 
336 1 32.9458 -9.6995 8.32826 -0.00569555 -0.00890495 -0.0189492 
329 1 32.4561 -9.34555 5.6356 0.0053228 0.000566873 0.0116811 
358 2 32.0138 -6.1851 7.27754 -0.0200849 -0.0120655 0.00896457 
328 1 33.528 -11.3407 6.85418 -0.00125495 -0.000263771 -0.0155641 
573 2 13.0441 -2.52163 6.77086 0.00876426 0.0899517 -0.0285969 
561 1 12.9867 -1.7491 6.07232 -0.0184219 0.0193032 -0.00641722 
551 1 12.6792 -0.37947 6.72902 -0.0110933 -0.00135766 -8.45793e-05 
272 1 35.9652 -8.08135 -7.06831 -0.0216176 0.00321492 0.0105342 
468 2 17.798 6.74318 21.937 0.0954081 -0.0210848 0.070633 
463 2 23.2635 9.70066 18.468 -0.0277975 0.0166735 -0.019093 
467 2 18.7766 8.75336 19.5124 0.0292919 -0.0498253 -0.0147504 
455 1 19.5752 8.22203 20.2883 -0.00943103 -0.0121758 -0.00301464 
444 1 19.9243 7.20005 21.2316 -0.013 -0.0012199 0.00647325 
438 1 20.9756 7.9061 22.0549 0.00407978 -0.0268403 -0.000901867 
452 1 20.851 8.60247 19.9708 0.0102431 -0.0322696 0.000529061 
436 1 22.0095 8.62441 21.7199 0.00442578 -0.00371904 0.0168167 
456 1 18.955 6.72694 22.3141 -0.00697712 -0.00736515 -0.00874879 
434 1 23.0394 9.4287 22.36 -0.0340998 0.0215736 0.0133612 
442 1 22.1244 8.99528 20.0356 -0.0073532 0.0123521 0.00272892 
454 1 19.8412 6.79385 23.4429 0.00980561 -0.0114564 -0.016508 
437 1 20.6802 7.88979 23.4231 -0.00594499 0.00192493 -0.0242743 
451 1 23.2777 9.61342 19.5191 0.0170567 0.00162047 0.000175445 
440 1 23.9336 10.4126 21.8055 0.0181425 0.00254316 -0.00361616 
448 1 23.9634 10.6048 20.317 0.0368394 -0.00548975 -0.00497367 
460 2 24.4963 11.1812 19.447 -0.0929134 0.0604028 0.00568261 
447 1 25.0161 10.3616 22.8298 0.013351 -0.0267024 0.0108996 
453 1 18.2094 5.80624 24.5266 -0.00803092 0.00802141 0.0161705 
465 2 19.1637 8.18041 25.533 -0.0115101 0.0317625 0.0280575 
462 2 19.7769 8.88915 27.2721 0.0196789 -0.0167128 0.0167656 
450 1 19.9478 8.6118 26.1852 0.00796905 -0.0137493 -0.0131771 
435 1 21.2573 8.89144 24.0835 -0.0189562 -0.018968 -0.0158535 
441 1 21.1375 8.82933 25.5493 -0.00375163 0.0138048 -0.0112024 
443 1 19.19 6.46487 24.6064 0.0210397 0.0178933 0.00677724 
433 1 22.4674 9.63876 23.7859 0.000315458 0.0214858 -0.00572228 
449 1 21.9465 9.72271 26.633 -0.00317723 0.00159584 -0.0134765 
461 2 20.8581 10.1172 26.7205 0.0125053 0.0127825 0.0370578 
446 1 23.2226 10.4165 26.2839 -0.0211701 -0.022494 0.00392604 
439 1 23.4349 10.1904 24.7928 0.0128581 -0.00768975 -0.00466305 
445 1 24.7527 10.1362 24.2099 0.00397399 0.00250374 -0.013732 
458 2 23.4472 11.4243 26.4704 -0.00242251 0.0584928 -0.00912023 
149 1 23.7719 -11.2366 33.3851 -0.0265442 0.0174029 -0.0234943 
150 1 23.0689 -10.7736 34.2458 0.0140414 -0.0192825 -0.012787 
148 1 23.3131 -9.34954 34.6035 0.0063505 0.0041692 0.0125205 
156 1 21.7784 -11.3634 35.0724 -0.0188635 0.00827942 0.00723297 
160 1 24.2197 -7.08768 35.5826 0.00824467 0.00462194 -0.00296034 
163 1 22.7097 -7.14031 35.5054 0.00745344 -0.00662158 0.0224357 
154 1 22.2858 -8.43063 34.9618 -0.00301238 0.00684104 -0.012886 
169 2 26.8454 -7.21557 35.6369 -0.0591803 0.00587736 0.0193538 
159 1 26.7044 -7.24096 34.4863 0.0134517 0.00472674 0.0266357 
173 2 28.1405 -11.2743 30.6618 -0.036816 -0.0210669 0.0874962 
153 1 26.1512 -11.2918 31.7753 -0.000676079 -0.0202885 -0.00466173 
145 1 25.4435 -9.44435 33.0963 0.00722842 -0.00741278 -0.0215147 
147 1 24.9117 -10.727 32.7136 0.01442 -0.0185475 -0.0010957 
146 1 24.7893 -8.86971 34.2208 0.0130828 -0.011091 0.014875 
152 1 25.2129 -7.54409 34.47 0.00375105 0.00936268 -0.0172963 
161 1 27.3944 -10.8427 31.3162 0.00931353 0.0204768 -0.0179167 
170 2 28.4183 -9.35437 31.2016 0.00948383 -0.0593683 0.0378021 
158 1 27.5845 -9.59633 31.6547 0.0243222 0.0175054 0.0146816 
151 1 26.8711 -8.88681 32.5964 0.0181479 -0.0080141 0.0195499 
157 1 27.5848 -8.05716 33.5783 0.00423353 -0.017343 -0.00185566 
171 2 28.5913 -8.21832 33.6881 -0.0121092 -0.0502332 0.0541612 
167 1 20.8701 -10.1353 35.4967 0.00816566 -0.0178397 -0.0104219 
457 2 25.8979 9.96776 24.6045 0.0365816 -0.119364 -0.0189261 
459 2 26.1277 10.1187 22.5108 -0.0200987 -0.0727719 -0.0380482 
164 1 20.9216 -8.82843 35.0123 -0.0146888 0.00931782 -0.0116656 
175 2 22.0203 -6.39147 35.7433 -0.0101911 -0.0439533 -0.056543 
536 2 23.8289 16.6372 -5.97775 -0.0327733 -0.0135128 -0.0118328 
508 1 21.717 14.0107 -6.08889 0.00422762 -0.0157962 0.0264105 
527 1 23.8751 15.6145 -7.91273 0.00195884 0.0101543 0.0064835 
524 1 23.4111 15.9696 -6.65304 0.0259401 0.00974729 -0.00458678 
510 1 22.6676 13.3993 -7.08439 -0.00565609 0.00436414 -0.00103978 
516 1 23.0375 14.2875 -8.21643 -0.00833501 -0.0152572 0.0277065 
517 1 19.5936 12.3372 -2.92907 0.00613656 -0.00126047 0.010129 
528 1 22.4472 13.5123 -9.3982 0.0143329 -0.0107125 -0.00693385 
526 1 22.0536 12.0684 -9.56451 0.000745708 -0.0260675 0.00386653 
340 1 34.536 33.8532 6.46866 -0.0150373 0.0398469 -0.00833804 
506 1 20.9167 13.4616 -5.1894 0.0144973 -0.0135821 0.0199158 
514 1 22.4275 15.2237 -5.73534 0.0187523 -0.000507562 -0.00797898 
538 2 21.1816 12.3512 -10.0299 -0.0433642 -0.0227555 -0.00489141 
531 2 19.8684 14.5414 -2.4884 -0.0134368 0.0477761 0.0313728 
523 1 22.7375 15.85 -4.39783 0.0146738 0.00268104 0.00578591 
535 2 23.4244 16.6312 -4.1545 0.00175794 -0.00250218 0.0219671 
520 1 21.7678 15.2243 -3.62415 0.0120777 0.010075 0.000277184 
532 2 21.9428 15.7296 -2.53648 -0.0235068 0.0210078 -0.00870285 
512 1 20.9297 14.0676 -4.00139 -0.00443127 -0.00131513 -0.0114135 
519 1 20.2131 13.6451 -2.76268 0.0147444 -0.00241198 0.010075 
540 2 31.7919 20.7851 -2.75656 -0.0179448 0.0562798 0.0227228 
537 2 31.8528 20.6834 -2.06135 0.0877872 -0.0414609 0.0301918 
343 1 34.0652 34.1555 7.69064 0.0101001 -0.00698487 -0.018433 
356 2 32.4968 35.6571 9.93572 -0.0667897 -0.0063863 0.0320148 
351 2 34.8197 33.1699 3.89583 -0.0337874 0.0353768 -0.094927 
339 1 34.576 34.1769 3.80939 0.00273136 -0.000225967 -0.0214493 
337 1 34.3831 34.968 2.64009 0.00383021 -0.00948531 0.000730986 
349 2 34.5969 34.9856 1.63577 0.00385808 -0.0709037 0.0505317 
332 1 34.3852 34.8253 5.12489 0.0257156 0.0144866 -0.00763113 
334 1 33.3414 35.5989 7.9494 -0.0250333 -0.013851 0.0133094 
282 2 14.2365 29.2788 10.5563 0.079605 -0.0566716 0.035657 
135 2 14.6044 28.7053 9.85511 -0.0363342 -0.0422028 -0.0153859 
529 2 18.4301 12.5065 -2.22948 0.00667083 0.0362472 0.0189232 
326 1 33.7696 35.9323 5.49818 -0.0070318 0.00928632 0.0106909 
165 1 24.6695 34.5476 32.5873 0.00449607 0.0169214 0.0113514 
168 1 22.035 35.199 35.0065 -0.0111766 -0.00728553 0.0181331 
155 1 23.5091 35.1983 33.0373 -0.00111767 -0.017049 0.00492903 
178 2 21.6953 33.8188 33.3056 0.0265101 -0.0537917 0.0354568 
166 1 22.2021 34.8567 33.6738 0.0189626 0.0157869 0.0160099 
180 2 21.1909 34.7856 35.7043 0.0273023 -0.104588 0.0207201 
174 2 24.3773 33.4669 32.4658 -0.0673005 -0.0397326 -0.0224894 
162 1 25.7126 35.4407 31.8026 0.0139905 -0.000752666 -0.0263575 
278 2 17.7237 23.8713 34.1725 -0.00509013 -0.0583653 -0.0453509 
283 2 17.9773 24.2639 34.7892 -0.0379899 -0.0371277 -0.153334 
144 2 38.0533 -3.11862 1.12918 -0.0543005 -0.0630994 0.0587242 
394 2 37.9389 -3.60925 0.987355 0.0200987 0.106322 -0.043947 
275 1 37.1628 -8.91655 -7.35832 -0.00365877 -0.0170575 0.021381 
258 1 38.388 -7.22324 -6.28023 -0.00907556 -0.00640522 0.00713124 
264 1 38.5385 -8.4624 -6.94352 -0.0113225 -0.00593647 -0.0114485 
276 1 39.5994 -9.04102 -7.77031 -0.00341013 0.00542886 -0.0205886 
288 2 39.7977 -9.65184 -8.50756 -0.00669283 -0.089519 -0.077107 
274 1 40.6948 -8.02578 -7.7875 -0.00411183 -0.0421746 -0.00951908 
263 1 40.5877 -6.70462 -7.00617 -0.0365128 -0.00698821 0.00447764 
286 2 41.4261 -8.20377 -8.58452 0.0574795 0.000201492 0.00836859 
210 2 44.5997 5.84074 2.2462 -0.015795 0.00302181 -0.06498 
256 1 37.257 -6.57974 -5.57072 0.0288786 0.0120355 0.0257903 
257 1 39.4063 -6.13658 -6.50688 -0.00832046 0.0152621 0.0427526 
255 1 39.5237 -5.0741 -5.52883 0.00118611 0.00606041 0.00802009 
285 2 42.8314 -6.54873 -7.39668 0.0731884 0.115758 0.00130648 
273 1 41.8956 -5.99352 -7.38565 -0.0102638 -0.00274334 0.00183293 
270 1 41.8162 -4.95581 -6.50888 -0.00462493 -0.00296078 -0.0034795 
260 1 36.0035 -4.75226 -4.31112 -0.008188 0.00547033 0.0102513 
254 1 37.3761 -5.60183 -4.50976 -0.00874643 0.00857629 -0.00361428 
253 1 38.5958 -5.13227 -4.46636 0.00724768 -0.00511757 0.030191 
267 1 36.383 -3.41064 -3.8042 0.00371891 -0.00790171 0.00462403 
259 1 38.8246 -3.83338 -3.58659 -0.00122223 0.0131214 -0.0265608 
265 1 37.7609 -2.97798 -3.765 -0.0194823 -0.00532722 0.0049811 
277 2 37.9482 -1.85659 -3.6974 -0.0668434 0.0804842 -0.0943347 
266 1 40.0779 -3.2432 -3.63977 0.0104595 -0.005962 0.00395471 
269 1 40.9233 -3.43072 -4.40167 -0.0285559 0.00960913 0.00339559 
261 1 40.8708 -4.36053 -5.4164 -0.00347412 -0.013477 0.00790623 
281 2 40.2945 -2.01719 -3.41237 0.00199557 0.0097987 -0.011974 
466 2 52.6017 -11.6836 -4.22039 -0.120903 0.053963 0.0209725 
105 2 52.8841 -11.9015 -3.3088 0.159186 0.0434733 -0.0336898 
245 2 46.0949 -5.581 15.0997 0.019243 0.0286234 0.0537903 
246 2 46.1412 -7.93356 16.5974 -0.128768 -0.00231496 0.0650744 
233 1 47.1532 -5.9663 14.7359 0.000396859 0.0203931 -0.00359147 
225 1 47.697 -7.1001 15.2742 -0.0117082 0.0208342 0.00201491 
234 1 47.1931 -8.22397 16.2371 0.0167547 0.0369682 0.000141198 
237 1 47.9289 -9.34151 16.815 0.00335957 0.00449612 -0.0256463 
249 2 47.6474 -10.232 17.5995 -0.0435308 0.0378824 0.000105282 
230 1 47.5784 -4.88359 13.8703 -0.00309941 0.0171734 0.0230923 
219 1 49.0629 -7.3161 14.9036 -0.0121833 -0.0105501 -0.0336933 
217 1 49.6907 -6.1696 14.7247 0.0162298 0.00274086 -0.0114468 
221 1 49.8574 -8.29713 15.64 0.0063172 0.025874 0.00560706 
218 1 50.8601 -5.86869 15.0995 -0.0228001 -0.00952675 -0.0287049 
222 1 51.2896 -8.05787 15.6174 -0.0178537 -0.0128572 -0.000586384 
227 1 49.1903 -9.52549 16.0948 0.0133417 -0.00858923 0.0167861 
220 1 51.6837 -6.73995 15.8409 0.00458225 -0.0084301 -0.00368158 
238 1 48.9424 -10.4198 14.9801 -0.0190893 0.0205441 0.0186411 
240 1 49.3027 -11.3095 13.9381 -0.0156411 -0.00573798 -0.00107812 
226 1 52.9904 -6.32841 16.4899 -0.0307843 0.0193528 -0.0241391 
248 2 52.0999 -10.1912 16.7698 -0.0559346 -0.0123108 0.0997825 
357 2 50.3487 -10.8817 13.6185 0.0171465 -0.059538 -0.124651 
239 1 53.5271 -7.36472 17.5075 -0.00433344 -0.00781795 -0.00665851 
242 2 47.1373 -4.07219 13.5148 0.019973 -0.0108222 -0.0503335 
223 1 48.9294 -5.02722 14.1211 -0.0132438 0.0049523 0.0030432 
224 1 51.4334 -4.80404 14.219 -0.012215 -0.00710212 -0.00746112 
241 2 48.5369 -3.2079 13.1226 0.0177621 -0.00527729 -0.089388 
229 1 49.4464 -3.95643 13.3819 0.000162163 0.0209203 -0.00767812 
231 1 50.7865 -3.67585 13.5571 0.0032009 0.00623052 0.00213241 
232 1 52.8054 -4.61295 14.8037 0.0134071 0.014879 -0.00319751 
243 2 51.0067 -2.62297 13.3607 -0.0462018 0.102195 -0.0501692 
244 2 53.2738 -3.89673 14.146 -0.0261812 0.0249314 -0.0857319 
235 1 53.5424 -5.27106 15.7111 -0.0171692 0.0156295 -0.0152306 
247 2 54.4385 -5.02091 16.4105 -0.0139076 0.0262641 0.0019137 
236 1 53.0493 -8.43127 17.0579 0.0364662 0.00512635 -0.0172406 
228 1 52.0589 -9.08492 16.3561 0.00944702 0.0135489 -0.00585556 
251 2 54.4098 -7.79042 18.1101 0.00515687 -0.0980128 -0.00521547 
252 2 48.3811 -11.4043 13.2692 -0.000320708 0.0356321 0.0166172 
504 2 57.9859 12.4901 -2.47791 0.0498352 0.0487026 -0.0373124 
71 2 57.2226 12.2535 -2.23331 -0.0256354 0.105245 -0.0244522 
499 2 55.5163 22.3118 34.0621 0.0256194 -0.0197521 -0.0320866 
498 2 51.3554 23.8896 27.3636 0.0101502 -0.0542014 -0.0264394 
485 1 51.4464 23.9234 28.4305 -0.012482 0.00825511 0.00198663 
500 2 54.6125 26.648 27.5982 -0.00196988 0.0446053 0.00992857 
488 1 52.8875 25.7884 28.3287 -0.00770074 -0.00384739 0.00461784 
491 1 53.6376 26.8355 28.2405 -0.00884323 0.0167496 -0.00373357 
501 2 53.5794 27.6697 28.5565 0.0446917 -0.037341 -0.0289151 
477 1 52.0575 24.9975 29.0226 -0.00251939 0.00639272 -0.018892 
502 2 56.3634 24.0126 28.004 -0.0350331 0.0224126 -0.00218283 
492 1 56.6455 26.6693 29.3845 0.0127803 0.00118714 0.0241291 
486 1 56.8545 24.8013 27.8963 0.0154673 -0.0172703 0.0106206 
489 1 57.0395 25.8865 28.2052 0.0125988 0.0257671 -0.00270702 
108 2 50.645 21.9529 31.4001 -0.0370764 0.00943458 -0.0614574 
494 2 50.7881 21.6755 28.8436 0.054102 0.0297432 0.0178291 
475 1 51.1095 22.573 30.4715 -0.00242117 0.0151089 0.00606474 
469 1 51.6369 23.4473 31.4211 -0.00381695 0.0172507 -0.00283774 
482 1 50.8217 22.8212 29.0894 -0.0205916 0.0101365 -0.0298907 
481 1 52.1245 23.3759 32.9127 0.030491 0.000989565 -0.0119384 
472 1 54.3154 26.1357 32.9076 0.00696123 0.0243505 0.0140274 
484 1 54.9995 23.2905 33.5786 -0.00263243 -0.0105863 -0.00877604 
497 2 52.6818 27.8999 29.9359 0.100568 -0.016886 0.00644482 
483 1 51.5762 22.7187 33.8911 0.0145287 -0.0459209 -0.0180024 
493 2 51.3569 21.9302 34.6805 0.111282 0.0527394 -0.0147911 
471 1 52.0587 24.783 30.6308 0.0122257 -0.0062008 -0.0164111 
476 1 53.6893 23.8033 32.9439 0.00289559 -0.0134352 0.00556594 
479 1 52.7811 25.7337 31.3345 -0.0208131 0.00431588 0.0253532 
470 1 53.3376 25.1574 32.5635 0.00907982 0.0148063 -0.0157424 
474 1 52.9149 27.194 31.0818 0.00613625 -0.00025064 0.00778524 
478 1 55.3372 25.3994 33.5944 -0.0211102 -0.00209687 -0.00133159 
487 1 55.9281 24.3615 34.2189 0.00631434 -0.0256343 -0.00434572 
490 1 56.3263 27.1614 30.5094 0.00856359 0.00222133 -0.0164651 
503 2 56.4967 23.9367 34.8531 -0.0367254 -0.0598548 -0.0255252 
480 1 55.5753 27.8068 31.4905 0.00528553 -0.013423 0.000770514 
473 1 54.1661 27.3013 31.9713 -0.00860185 -0.00745965 -0.0211011 
191 1 74.1827 10.8036 -11.2759 0.00684871 -0.00157194 0.00589933 
213 2 75.7134 11.1008 -9.5278 -0.0151605 -0.0400304 0.100968 
106 2 67.8162 -9.89337 10.4923 -0.0187856 0.0266383 -0.0622894 
201 1 74.9263 11.4308 -10.3447 0.00421777 -0.0333136 0.0128826 
75 1 64.5443 -11.8204 11.9908 -0.00278472 -0.00384235 0.0155239 
101 2 61.9335 -11.0016 9.89698 0.0147282 -0.0511807 0.0467452 
81 1 63.8033 -11.1538 10.8457 0.0179233 -0.0163921 0.0377076 
89 1 62.5392 -11.6415 10.4781 -0.011177 -0.0120692 0.0153706 
99 2 79.9825 9.3319 5.35675 0.0494253 -0.0814524 -0.111866 
90 1 64.1965 -9.69544 10.1484 -0.0132721 -0.00703189 0.00724881 
93 1 65.5276 -10.3649 10.0155 0.0101112 0.0105083 0.0117075 
83 1 66.1996 -10.1754 11.3291 0.0117902 -0.00787952 0.00331731 
102 2 65.7514 -11.0035 9.04617 0.01898 -0.0767864 0.0950069 
94 1 67.6365 -10.8416 10.994 0.000370252 -0.0173318 -0.0238603 
100 2 83.2312 9.1264 6.66539 -0.0306481 0.0514247 -0.038993 
45 1 63.6623 11.6426 10.6096 0.00490578 -0.0221146 -0.00749228 
69 2 68.1449 5.40502 11.3635 -0.0639507 0.00984046 -0.0458522 
66 2 64.7094 7.83422 11.8429 -0.00301821 0.0919349 0.0244499 
62 2 63.5661 10.6653 10.107 0.00403498 -0.0797628 0.00784134 
41 1 65.8417 10.9768 11.8698 0.008865 0.0113354 -0.00029204 
202 1 74.1766 9.39897 -11.2172 0.00254781 -0.00920783 -0.00311134 
47 1 65.8794 8.1448 11.8576 -0.00325385 -0.017353 0.0261461 
80 1 82.9409 10.0381 7.35269 -0.00282671 -0.00568739 -0.00677737 
87 1 81.8365 10.1455 6.86696 -0.0164637 -0.0120236 -0.00923263 
85 1 81.1763 9.46463 5.83902 0.00394232 0.00820743 -0.0374368 
39 1 64.6578 11.6677 11.6456 -0.00455985 -0.0188565 -0.0144059 
54 1 67.2497 6.25593 11.6463 -0.0081911 -0.00852907 -0.0160642 
215 2 73.5555 7.91716 33.228 -0.00533608 0.0459265 -0.016074 
60 1 67.4663 9.3762 12.7206 -0.00208788 -0.0102807 -0.018099 
84 1 67.924 -11.25 13.8621 -0.00437763 -0.0186732 -0.00466698 
78 1 66.4561 -11.3209 13.8398 -0.0227671 0.0126618 -0.00385259 
212 2 72.4047 8.79095 30.9775 -0.00264237 0.0538867 -0.0574156 
96 1 67.9174 -11.1126 12.311 -0.00222062 -0.0155384 -0.0113375 
184 1 72.6337 11.5246 33.1392 -0.0147223 -0.00258183 0.0220725 
378 1 76.4982 -11.6238 32.9525 -0.00784524 -0.00459167 -0.00283929 
57 1 66.3773 6.78116 12.162 0.0335613 -0.0205546 -0.00878127 
42 1 66.864 11.4808 12.3232 -0.0220885 -0.0190991 -0.0204934 
48 1 68.0022 10.8683 12.9191 0.0170575 0.00830534 0.00737996 
192 1 73.2491 9.45087 34.247 0.00186797 0.0165724 -0.0011117 
56 1 69.1442 10.9449 13.875 0.0122868 0.00305916 -0.000913379 
72 2 70.134 10.1408 14.2609 0.0561773 -0.0548009 0.000622676 
186 1 73.4403 10.8879 34.2865 0.000404937 0.0222248 0.00175445 
308 1 74.2065 -2.38552 24.7595 0.00938937 -0.00518952 0.00318737 
320 2 73.3888 -3.27264 24.7962 0.00947401 0.0685363 -0.0466967 
311 1 74.4011 -2.13008 23.4746 0.0221818 -0.0101073 0.0138141 
300 1 75.1726 -1.0511 22.79 -0.0182833 -0.000232441 -0.00750593 
294 1 76.1771 -0.26883 23.7777 0.0110093 -0.00454976 0.009498 
323 2 74.1061 -2.96439 22.8013 -0.124473 -0.00591448 -0.0405508 
322 2 78.1721 -1.12754 21.6705 0.0168774 -0.0381876 -0.0674784 
310 1 78.3449 -0.235205 22.4484 0.0134011 0.0098208 -0.00697777 
318 2 79.9649 -0.757016 21.3051 -0.0527663 0.0350672 0.00678676 
324 2 74.3695 -1.61002 20.8168 0.0116826 -0.035939 0.0311117 
312 1 74.8583 -0.949886 21.5051 0.00824798 0.00504489 0.0287374 
321 2 75.4348 0.00301968 21.1557 0.0845593 -0.0598344 0.0952312 
293 1 77.4064 0.43562 23.4498 0.0154656 0.00636852 -0.0193091 
299 1 79.7409 -0.121191 22.1171 -0.0113296 -0.0175435 -0.0177515 
309 1 80.7387 0.960288 22.5238 -0.0210958 -0.00538868 0.0034399 
306 1 80.0401 1.57213 23.6873 -0.00308116 -0.00179229 0.00523277 
496 2 66.3096 -4.38191 25.1535 0.0141181 0.0295932 -0.016773 
386 2 78.7066 -10.8647 28.3962 -0.0455507 0.0272564 -0.0511072 
385 2 80.5887 -11.7288 29.1699 0.0118947 -0.043874 0.0357489 
464 2 67.802 2.47155 22.8743 0.0010154 0.0679974 -0.146292 
64 2 68.2481 1.76642 23.6855 0.00242751 -0.00853259 0.0226137 
319 2 72.9089 -2.00278 27.1469 0.0125774 -0.0225758 0.0345311 
298 1 74.5625 -1.26469 25.6146 -0.022412 -0.0204448 0.0286047 
307 1 73.9627 -1.25543 26.9298 -0.0130767 0.0249143 0.0153041 
316 2 74.5109 -1.34179 29.0821 0.0949315 0.0405362 -0.0132763 
304 1 74.8442 -0.981938 27.843 0.000384525 -0.00173847 -0.00738108 
296 1 75.9783 -0.194891 27.5587 0.0149514 0.0294127 -0.000547412 
303 1 76.8047 -0.00281022 28.7545 0.0166625 -0.000993054 -0.00727436 
290 1 76.5703 -0.290442 26.0649 0.0243483 0.00963751 -0.00945125 
292 1 75.6112 -0.126709 24.9739 -0.0171403 -0.000992922 -0.0121005 
315 2 76.4776 -0.268906 29.8019 -0.0832347 -0.00602833 -0.0188292 
313 2 79.1144 -0.396072 28.5815 -0.00720014 -0.0354216 -0.00939072 
301 1 78.1759 0.195389 28.1967 0.0110747 -0.0125796 -0.00039358 
295 1 78.5583 0.747555 26.9393 -0.00712019 -0.0137486 0.0314069 
289 1 77.7442 0.351427 25.8152 -0.012275 -0.00404495 -0.0204529 
314 2 79.6051 2.31707 27.5799 0.0515655 0.0393473 0.0455878 
291 1 77.8822 1.27522 24.5806 0.00801838 0.0213389 -0.0126163 
302 1 79.716 1.79536 26.6353 0.00803463 -0.0189497 0.00736475 
305 1 79.3602 2.88271 25.685 0.00192256 -0.00533323 -0.0617659 
297 1 79.0936 2.29315 24.3778 -0.0184138 0.00833348 0.0159606 
317 2 78.5025 3.81948 25.7646 0.0504928 -0.000837995 -0.0477826 
58 1 66.2549 9.51122 12.1536 -0.0151396 -0.0166945 0.0137896 
377 1 77.4508 -11.3042 30.3904 0.00508538 0.00865669 -0.00113062 
204 1 73.9818 8.72808 35.6228 -0.0103525 -0.0135519 0.0119619 
387 2 82.1648 -9.91576 32.2464 -0.0734957 0.0193388 0.0971574 
388 2 83.9296 -10.1639 31.7868 -0.043345 -0.119211 0.0538879 
373 1 82.7814 -10.3465 31.5382 0.0124832 0.00716067 -0.0132721 
375 1 82.2794 -11.5363 30.9919 -0.00307573 -0.0116532 -0.00920867 
374 1 78.5168 -10.9186 29.5358 -0.0101408 -0.0227089 0.0133493 
367 1 79.7723 -11.5677 29.9033 0.00946954 -0.00926782 -0.0184224 
199 1 71.3873 11.4684 30.8827 -0.0222561 -0.0112774 0.000677514 
211 2 71.6931 10.7827 30.0228 0.045748 -0.10426 -0.00921495 
190 1 71.7868 10.7924 32.1061 -0.00993783 0.00204138 -0.00523959 
185 1 73.6237 11.5762 35.4318 0.00707862 -0.002078 0.0111275 
200 1 72.4444 9.47674 32.0212 -0.0164164 0.00292588 -0.0108002 
214 2 74.0805 7.67723 35.5236 -0.0181724 0.0309656 -0.0603506 
203 1 73.1852 8.90039 33.0066 0.0147796 0.0200358 -0.013017 
495 2 75.6379 -10.8857 32.9113 0.0209053 0.0727126 0.0344003 
70 2 68.0595 8.76862 13.2745 -0.0585106 0.107622 -0.0568789 
369 1 77.4582 -11.671 31.8883 0.0110667 0.0109961 0.0048359 
77 1 65.7557 -11.0102 12.4673 0.0151954 -0.0213385 0.0224987 
176 2 62.8452 -5.53436 26.7942 0.113052 -0.0674249 -0.0200502 
53 1 62.2571 12.1666 10.9753 -0.0093946 0.0127838 0.0152888 
98 2 61.5686 34.1852 10.3803 -0.051197 -0.00565151 -0.0250994 
198 1 74.3244 12.6945 -10.3016 -0.0060536 0.0053275 0.020285 
133 2 74.7645 13.4862 -9.90337 0.116793 -0.0709927 -0.0128095 
189 1 73.4974 13.4843 -11.1001 -0.0125154 0.0104476 -0.0266564 
197 1 73.0286 14.8344 -11.0676 -0.00932848 0.0131744 -0.0289314 
209 2 73.6647 15.1268 -10.1174 0.0224292 -0.0718916 0.044645 
86 1 62.1705 34.8482 10.9158 0.0433674 0.00629639 -0.013559 
250 2 63.0549 18.2891 -11.6705 -0.0399502 0.00358675 0.0130104 
44 1 65.3693 14.2691 14.3906 0.0241461 -0.00313229 0.0288572 
63 2 63.6617 15.7312 15.0115 -0.0473493 0.0164461 0.0479533 
38 1 65.4706 13.2131 13.3034 -0.0145311 -0.0314095 -0.0302971 
51 1 63.966 14.822 14.3727 0.0118783 0.0180131 0.0104596 
61 2 62.0427 15.1281 13.6067 -0.056543 0.0214384 -0.00722953 
49 1 62.9118 14.4203 13.6391 -0.0235852 -0.0148906 0.0143126 
37 1 64.4792 13.0016 12.3336 0.0174304 -0.00510327 0.0246883 
43 1 63.1577 13.374 12.6213 0.0187946 -0.00739562 -0.00292426 
52 1 65.8489 14.1271 15.772 -0.0243647 0.0246512 -0.00919643 
67 2 67.4978 13.6345 16.5957 0.0651578 0.0583683 0.0802535 
40 1 66.7586 12.589 13.0451 -0.0094747 -0.00417252 -0.0125497 
55 1 67.2833 13.6656 15.6147 -0.00556294 0.00845645 0.0254253 
68 2 69.5358 12.577 15.5485 -0.0776332 -0.0189797 -0.0526732 
59 1 68.9849 12.0068 14.8068 -0.00183629 -0.013022 0.00713383 
46 1 67.6735 12.8055 14.479 0.0170466 0.0104256 0.01835 
29 2 68.9611 22.5935 14.3245 -0.0470557 0.0687524 0.0254577 
427 2 66.4633 26.9164 17.323 -0.0454297 0.0175766 0.00822592 
14 1 69.3519 22.7366 15.461 -0.00922105 -0.0102776 0.025238 
423 2 67.4575 24.8721 15.8088 0.0840315 0.0552321 0.0449158 
422 2 68.8894 28.3872 15.7311 0.0298962 0.0593057 0.0476476 
410 1 69.7589 27.6894 15.8588 0.0227341 -0.00392367 -0.00537638 
425 2 71.529 28.7984 15.4949 -0.00109402 -0.105507 0.00665422 
403 1 69.1261 26.2533 16.2612 -0.00246849 0.0118073 -0.0544509 
409 1 67.7284 25.8939 16.4267 -0.0147581 0.00769006 0.0208244 
413 1 71.0582 27.8294 15.4662 0.00250378 -0.0141124 -0.0077419 
17 1 69.8454 23.7953 16.2101 0.0129063 -0.0110955 0.0159085 
405 1 72.1309 26.7006 15.9674 0.0153741 -0.00801922 -0.0242179 
397 1 70.0306 25.1632 17.0199 -0.00694549 0.0285982 0.00452301 
399 1 71.5965 25.7958 17.02 0.00822992 0.000268005 -0.0323544 
33 2 69.2357 21.6606 15.8818 0.0135311 0.0135476 -0.043798 