ITEM: TIMESTEP
1010000
ITEM: NUMBER OF ATOMS
576
ITEM: BOX BOUNDS pp pp pp
-1.2000000000000000e+01 8.4000000000000000e+01
-1.2000000000000000e+01 3.6000000000000000e+01
-1.2000000000000000e+01 3.6000000000000000e+01
ITEM: ATOMS id type x y z vx vy vz 
241 2 0.713972 -7.16678 -4.98952 0.0830607 -0.0129146 -0.000188443 
230 1 3.13418 -7.96933 -5.91973 0.0391804 -0.00552558 0.0125114 
233 1 2.50863 -8.6218 -6.8868 -0.00961335 0.0251918 0.0165607 
242 2 1.41435 -8.91176 -6.76052 -0.103983 0.0838508 -0.0233494 
245 2 2.99478 -8.75787 -7.79018 -0.0238013 -0.0912801 0.0137225 
225 1 4.50309 -7.6782 -6.23086 0.0037407 0.025465 0.000665142 
246 2 5.35266 -8.20206 -8.58905 -0.148256 -0.0414158 -0.0569671 
237 1 6.70011 -7.08134 -7.18306 -0.00989113 0.0151962 -0.00222645 
234 1 5.39383 -7.54931 -7.45686 0.000315352 -0.00571382 -0.00893793 
249 2 7.1493 -7.14048 -8.44181 -0.0275178 0.0213902 0.0922437 
283 2 0.175357 -5.27853 -11.6294 -0.110508 0.042986 0.000248429 
278 2 -0.382687 -5.38822 -11.0704 -0.0268405 -0.0420569 -0.00888384 
98 2 -4.88638 -7.73701 -3.26589 0.0271622 0.0308747 0.0162897 
223 1 2.48066 -7.63114 -4.50426 -0.00620602 0.00955844 0.0222313 
231 1 1.48989 -5.60015 -3.57412 -0.0157938 0.0242607 0.0050038 
229 1 1.40259 -6.7947 -4.12265 -0.0196377 -0.00212731 -0.0211583 
217 1 3.6728 -6.92784 -4.16325 -0.019913 -0.00286536 -0.00521936 
219 1 4.82808 -6.94348 -5.16422 0.00757834 -0.0162413 0.00199982 
221 1 6.08346 -6.48004 -4.89773 0.0243478 0.018977 -0.00589039 
357 2 9.40684 -6.29529 -5.98818 -0.0269573 -0.00432803 -0.028267 
238 1 8.59177 -6.54531 -5.3501 0.00135134 0.0197322 -0.0152829 
227 1 7.16737 -6.63693 -5.89794 -0.0264964 0.0104373 -0.040684 
243 2 1.06163 -4.39814 -3.21511 -0.0208121 -0.00169939 -0.03653 
224 1 2.75167 -4.98094 -3.54322 -0.00724302 -0.00375119 0.0297022 
218 1 3.99248 -5.61562 -3.73403 0.0207568 0.0225832 0.0130874 
232 1 2.95883 -3.62606 -3.08052 0.00273071 0.00396742 0.0179105 
244 2 2.10168 -2.9659 -3.12153 0.0208034 -0.0428258 -0.037953 
220 1 5.28928 -5.16535 -3.33922 0.0215426 -0.000394674 0.0318235 
235 1 3.7272 -3.8786 -1.87565 0.0140528 0.00155336 -0.00677834 
247 2 4.03844 -4.12872 -0.736249 0.116367 0.0165075 -0.0132202 
251 2 6.20094 -2.92193 -0.988756 -0.023561 0.00422007 -0.0132956 
226 1 5.13269 -4.17511 -2.27644 -0.00260325 0.00412362 0.0110665 
239 1 6.24533 -3.83825 -1.87783 -0.0330769 0.00702514 -0.0181165 
222 1 6.25469 -5.57809 -3.94299 0.0177652 -0.00547579 0.00548385 
236 1 7.55824 -4.15402 -2.1355 0.00170452 -0.0277616 0.0028108 
388 2 8.42767 -3.49775 -2.07728 0.00739875 -0.0993849 0.00797461 
240 1 8.74911 -6.0144 -3.82285 0.0218794 -0.0051175 -0.0108269 
228 1 7.60514 -5.00252 -3.41326 0.00664198 -0.00472704 -0.00798578 
252 2 9.90959 -5.91063 -3.80013 0.0405934 0.023215 0.131757 
179 2 3.31406 2.69197 7.66771 0.0242308 -0.165413 -0.0777348 
539 2 3.66202 2.81258 6.86569 0.0237207 0.0311049 0.055153 
32 2 -5.73471 8.94368 7.22381 -0.0134419 0.115449 -0.0574599 
20 1 -4.60463 8.97185 7.38755 -0.020919 0.0174262 0.0237398 
23 1 -3.53194 10.1616 7.29925 -0.00300565 0.00674685 0.00957302 
36 2 -2.96642 10.8815 7.93774 0.0868944 -0.036056 0.115126 
28 2 -6.17524 4.94788 8.45258 -0.0373855 -0.0422013 -0.0128626 
16 1 -5.25648 5.77633 8.51329 -0.0198427 0.0213529 -0.0110472 
2 1 -2.78247 6.44178 9.12943 -0.00702055 0.00140318 0.011732 
1 1 -4.0537 5.73178 9.4705 -0.00159972 0.0337129 0.000760021 
3 1 -1.28937 5.79678 8.85865 -0.0233123 -0.0249304 -9.07526e-06 
8 1 -4.0477 4.48011 10.0211 0.00612359 0.0191646 0.0319076 
27 2 -2.31245 3.95411 11.4476 -0.0803393 0.0695751 -0.055858 
7 1 -2.57318 4.0389 10.184 0.0198802 0.0127438 0.00912141 
25 2 -4.96674 3.95972 10.2495 -0.00518325 0.0433075 0.00319063 
13 1 -1.12968 4.33087 9.37634 0.0177567 0.00898571 -0.0305241 
15 1 -0.253429 3.53533 9.19492 -0.021747 0.00403464 0.0157304 
26 2 2.00832 6.65631 9.60027 -0.0312875 -0.0266678 -0.00353126 
31 2 -6.38483 7.32664 8.06901 0.0625749 -0.0949989 0.00404665 
12 1 -2.26091 9.58932 6.81915 -0.0335275 0.0282383 0.00453718 
24 1 -0.902119 10.4331 6.92682 -0.0270579 0.0272351 0.00167822 
19 1 -5.53305 7.06039 8.49045 0.000661107 0.00223173 0.0251762 
10 1 -4.30722 7.99921 8.0441 0.0210883 0.0355935 -0.0124159 
4 1 -2.87395 7.54489 8.41321 0.00152245 -0.00362254 0.0050773 
9 1 -0.294446 6.92166 9.29679 -0.00896166 0.00259331 0.0210721 
6 1 -1.85104 8.53967 7.83764 0.0252397 0.00260057 0.0205809 
5 1 -0.570106 8.02819 8.26393 0.00505793 0.0121326 0.0136175 
22 1 0.436947 10.0146 6.96583 0.0292449 -0.00548524 -0.0198412 
34 2 1.10698 10.7747 7.48235 -0.00647057 -0.0394944 0.067481 
11 1 0.49784 8.57327 7.71232 -0.0160821 0.00705191 0.00681673 
18 1 1.09294 7.18255 9.284 -0.0109652 -0.0130786 -0.00750627 
21 1 1.66247 7.71911 8.05025 -0.0247624 0.0171803 0.0135099 
30 2 2.4652 8.18468 8.18856 0.0311498 -0.0458528 0.032278 
318 2 -1.03335 4.65363 -1.74246 0.0146269 0.050974 0.138578 
430 2 11.4465 11.889 11.5235 0.0295731 0.0387166 0.00163854 
324 2 -10.9418 -7.9487 13.9456 -0.0946908 0.0334816 -0.0184957 
312 1 -10.7003 -8.074 15.051 0.019327 0.0167949 0.0046796 
425 2 7.26108 9.39276 15.7409 -0.0522914 0.0179543 0.0858922 
424 2 6.11527 7.32613 17.0267 -0.0234475 0.0660568 0.167061 
412 1 5.39846 7.71392 17.8988 0.0100549 -0.0117747 0.0145689 
415 1 6.40413 9.83886 15.2855 0.018355 0.0188602 -0.0138419 
404 1 4.56591 8.58195 16.8364 -0.00138423 -0.00156087 0.0203499 
411 1 3.14642 8.64879 17.1205 -0.0197633 -0.00781354 -0.00231639 
398 1 5.11839 9.64284 15.9717 -0.00926183 0.00580266 0.0252009 
400 1 6.04042 10.7375 14.3186 0.0164979 0.0167776 0.0235252 
409 1 2.78417 10.0245 17.375 0.0217689 -0.0220157 0.00289928 
423 2 1.77024 9.79005 17.9332 0.0624262 -0.031559 -0.0167083 
17 1 4.63749 10.835 16.3482 -0.0130767 -0.0402633 -0.00842903 
402 1 5.93853 11.7835 13.5155 0.00628974 0.00309322 -0.00203399 
427 2 2.647 7.91294 17.8529 -0.0390425 0.041927 0.0311241 
397 1 3.71035 11.0878 17.1968 0.0012266 -0.00360495 -0.0115805 
250 2 8.51715 10.8832 13.6891 -0.0325943 -0.0543611 -0.0167639 
418 1 8.25211 11.7669 12.9467 -0.00526101 0.019352 -0.00997057 
311 1 -11.3614 -9.05736 15.8249 0.023328 0.0237013 0.0181466 
136 2 9.92292 10.8995 12.7579 0.117328 0.00752635 -0.0206889 
420 1 9.46591 11.7468 12.2809 0.000905856 0.0116931 0.0159526 
406 1 4.86853 7.07066 18.7155 -0.0201093 -0.0218658 0.0202809 
419 1 4.17393 7.05684 20.9848 0.0268176 -0.0137193 -0.00653034 
431 2 3.16084 7.32852 21.3799 0.057118 0.0319731 0.0119565 
416 1 4.11751 6.28926 19.7378 0.00913821 0.00660646 0.00814132 
428 2 4.07862 5.14295 19.6748 -0.0576877 0.00939468 -0.0136091 
566 2 0.829185 11.1965 23.4118 -0.0280611 0.112837 -0.0414279 
480 1 -10.2786 15.2614 11.817 0.00460311 -0.0234271 0.00966791 
502 2 -9.07659 14.845 7.7619 0.00341945 0.0403969 -0.0461502 
486 1 -9.24513 14.3729 8.69331 0.0147179 -0.0213776 0.00492569 
489 1 -9.41096 13.9245 9.78158 0.00148422 -0.0162954 0.000887035 
501 2 -6.11566 17.7311 10.3061 0.0192258 0.0683783 -0.043618 
492 1 -10.488 14.0782 10.6489 -0.00344943 -0.0223355 0.0252421 
401 1 7.00418 13.4055 11.4213 -0.00818382 0.00831936 -0.0100127 
399 1 8.21909 13.2171 10.5918 -0.011212 0.00511518 -0.0017385 
414 1 9.53393 12.8126 10.3435 -0.0030085 0.00707769 -0.0134587 
488 1 -6.72349 18.0705 11.3289 -0.0208934 -0.0214489 -0.0400618 
491 1 -8.02244 17.3199 11.4723 -0.00394106 0.00610146 0.00686378 
487 1 -11.2423 21.2592 11.2515 -0.0228779 -0.0193914 0.000165538 
405 1 10.3528 12.2561 11.3672 0.0244328 -0.021165 0.00949758 
407 1 10.7616 12.6308 9.21198 0.000395876 0.00691235 0.0293889 
499 2 -11.9948 21.6392 10.4622 -0.0244948 -0.0166312 -0.0497259 
500 2 -8.54386 16.6925 10.8057 -0.0916708 0.0381535 -0.0031382 
417 1 11.6086 12.1317 8.85337 0.0172568 0.0241404 0.0110593 
426 2 5.3032 12.5117 13.8456 -0.0171011 0.0434674 -0.0625071 
557 1 2.16955 12.9115 23.9653 0.0135866 0.0141504 -0.0160755 
473 1 -10.4917 16.4512 12.2211 -0.0120767 -0.0238375 0.00228106 
403 1 3.14856 12.3748 18.0649 0.0141524 -0.028805 0.0178731 
413 1 2.64984 13.2273 18.6954 0.0259414 -0.00851133 -0.00214678 
472 1 -10.8152 19.205 13.0296 -0.00166422 0.00592071 0.00120312 
483 1 -9.30691 22.6327 15.0184 0.0133889 0.0159849 -0.0102205 
469 1 -7.28106 21.2045 13.8769 0.0161135 -0.00488068 -0.0155103 
471 1 -7.291 19.8201 13.3307 0.00844705 0.0020061 0.0183005 
481 1 -8.48689 22.0572 13.8775 0.038284 0.00199976 -0.0182332 
479 1 -8.48233 19.0901 13.2569 0.0134338 -0.0127346 0.000600494 
549 1 0.807402 12.2267 23.3251 -0.00712581 -0.00895866 0.0056175 
476 1 -9.78442 21.6755 12.9116 0.00423957 0.00443397 0.00532571 
493 2 -8.72819 23.4893 15.2731 0.0416051 0.0171087 -0.0468656 
165 1 -10.8639 22.7672 14.6496 -0.00849706 0.0110366 -0.0200331 
484 1 -10.8786 22.3253 12.2253 0.00411044 -0.00617146 0.000729676 
474 1 -8.64332 17.8251 12.6183 0.00573194 -0.00774455 0.00501295 
570 2 -2.26804 30.9062 30.0358 0.00391337 -0.00665085 0.0147491 
470 1 -9.82313 20.0073 13.3756 0.00450091 0.0140043 0.0107976 
155 1 -11.6054 22.9089 13.4363 -0.00688109 0.00826067 0.00110027 
477 1 -6.31224 19.0087 12.4075 -0.0191304 -0.00877106 0.00755503 
319 2 -11.4047 35.942 16.8565 -0.0729341 -0.00954843 -0.0441013 
576 2 -1.88687 16.0029 19.654 0.0928755 -0.0544895 0.0558212 
564 1 -1.18814 17.3974 21.4126 -0.00822215 -0.0168396 0.0102418 
562 1 -2.07532 17.1458 20.2205 -0.0244557 -0.00507753 -0.00148208 
545 1 -1.28 16.1024 21.8448 0.0108036 -0.00207625 -0.0241855 
551 1 -1.66465 14.8349 21.6809 -0.0141657 0.0261368 -0.00968129 
561 1 -0.33288 14.4012 22.638 -0.0135706 -0.0118438 0.0108613 
421 2 -0.892214 18.2265 22.052 0.0150829 0.102593 0.0517732 
410 1 1.53267 13.8928 19.412 0.0309167 -0.0154535 0.00651793 
29 2 1.34106 12.8233 20.1605 -0.0769654 0.029607 0.0359661 
14 1 0.872986 15.1647 19.271 -0.0261161 0.0235839 0.00191246 
422 2 1.38111 15.9838 18.4674 -0.0397012 -0.0751706 -0.0254755 
573 2 -2.10224 14.3716 20.782 0.00868104 -0.017679 0.0779786 
546 1 -0.342576 15.633 23.2491 0.024515 -0.00728368 0.0392785 
558 1 0.0686593 13.192 22.8423 0.0113974 0.0124849 -0.0178882 
174 2 -10.6591 22.6826 16.7318 0.0276669 0.0648521 0.00634257 
552 1 4.66477 17.8128 23.3197 0.00341564 0.0120848 -0.0128932 
532 2 -3.09672 17.764 19.8815 -0.0766279 0.0200045 -0.0388983 
572 2 5.05411 19.1126 21.4083 -0.0259488 0.027014 -0.0359652 
563 1 5.02945 18.8516 22.5401 -0.0281497 -0.00756989 0.00783862 
571 2 -1.82422 18.4866 26.5673 0.0424506 0.0362874 -0.0295473 
550 1 -0.662179 17.1251 25.2189 0.0251284 -0.0208284 0.00438741 
544 1 0.266936 16.3172 24.416 0.0182998 -0.0240838 -0.00468308 
559 1 -1.23802 17.4787 26.3955 0.00575477 -0.0144302 0.0190347 
568 2 -1.69935 16.0719 27.2094 -0.122927 0.000862961 -0.0152395 
556 1 -0.737576 16.5596 27.5195 0.0421306 -0.00275208 0.00277893 
567 2 1.20856 16.3608 28.5898 0.0490339 -0.015737 0.0718634 
548 1 1.40052 15.5127 28.0497 -0.0225675 -0.0125267 -0.0312903 
553 1 2.41189 14.2381 27.7567 -0.00947121 -0.0153992 0.0202189 
565 2 2.8692 13.6275 28.5621 0.0271163 0.000957532 0.0572561 
554 1 2.60812 13.3942 25.2534 0.0164464 -0.00151543 -0.00148021 
541 1 2.23433 15.4895 25.3674 -0.0493386 0.00640405 0.021326 
543 1 3.57623 15.7503 24.6757 -0.0292527 0.00182537 -0.0230918 
560 1 4.15751 16.6457 23.8695 -0.0348021 -0.0217337 0.00227913 
569 2 4.1328 14.6416 25.1553 0.0708392 0.00376246 0.0649256 
547 1 2.72025 14.4756 26.3792 0.011626 0.00401374 -0.0148271 
542 1 1.08507 15.7638 25.7404 -0.00413948 0.00645399 -0.00727533 
555 1 0.265357 15.7253 26.9816 -0.00333514 0.00528898 -0.00525413 
177 2 4.85335 19.8489 22.9248 -0.0564292 0.0243927 -0.052173 
385 2 -1.55607 31.576 30.0841 0.0501516 -0.00686466 0.0595236 
162 1 -11.3685 22.8038 15.8657 0.00722682 0.00582182 -0.00183244 
490 1 -10.3073 17.7949 12.6868 -0.00618574 -0.00141956 -0.00502719 
314 2 -9.76017 16.9595 13.6294 0.046716 0.04803 -0.00618389 
408 1 6.95748 12.2458 12.4865 0.00139459 0.0172103 -0.0138943 
478 1 -11.6641 20.2684 12.2085 -0.0184155 -0.0139251 0.00451652 
432 2 2.89983 13.8026 23.484 -0.0366501 0.0897339 -0.0236483 
211 2 34.518 4.04589 9.82667 0.0539347 -0.00697363 0.0237785 
196 1 35.4055 4.18279 10.3263 -0.00179554 0.00178599 0.0209811 
206 2 35.4741 10.0461 11.2006 0.0110555 0.0302751 -0.0202241 
195 1 34.428 6.35508 10.7043 0.016287 -0.00785953 0.022477 
207 2 33.3801 6.55291 10.2463 0.0755587 -0.0711493 -0.111096 
193 1 34.782 7.71301 11.4878 -0.0125985 0.00877416 0.00317308 
188 1 35.6218 5.53409 10.6947 0.00597495 0.00716077 0.0232559 
137 2 27.345 -0.415854 27.3519 -0.0383203 0.0614951 0.024902 
352 2 27.8912 7.34744 18.7789 0.00529951 0.112691 -0.115969 
574 2 27.925 8.40915 19.1765 0.0461894 0.0195784 -0.0928901 
208 2 34.3052 7.93054 12.5227 0.0523237 0.0268288 -0.0248935 
359 2 31.9665 18.8515 10.2372 -0.10492 -0.00481798 -0.0181759 
347 1 31.4969 18.248 10.7438 -0.00107935 0.000991967 -0.000593962 
466 2 22.0344 25.7225 2.50978 -0.0419315 -0.0261568 0.0971591 
105 2 22.9007 25.3738 2.7074 0.0504703 -0.00789971 0.0335111 
360 2 34.0514 16.7203 9.31996 0.0822616 0.0508834 -0.0798226 
348 1 33.8996 17.2114 10.3235 0.0160843 0.0189587 0.0234311 
336 1 32.7408 17.4437 11.1695 -0.00822586 -0.00450738 0.00348469 
358 2 35.6356 16.4423 10.1527 -0.00711122 -0.00507303 -0.00663582 
346 1 34.9791 16.5708 10.9087 0.00623934 0.00855539 0.0197131 
356 2 30.154 19.6679 11.4854 -0.0170112 0.0771474 -0.0307409 
344 1 30.3916 18.6257 11.5534 -0.00516863 -0.0215402 -0.00683419 
429 2 12.5278 12.7869 7.95216 0.018838 0.0765327 0.079584 
333 1 35.6976 16.0005 15.2493 -0.00529631 -0.0279982 -0.013546 
335 1 35.3207 16.4502 12.3494 0.00364516 -0.0306612 0.0301457 
329 1 34.2044 16.5675 13.0475 0.000764431 0.0292115 -0.0132012 
341 1 35.7216 15.9452 16.6538 -0.00581365 0.0165751 0.00934666 
327 1 34.5077 16.5119 14.4843 0.0181651 -0.0125308 0.0130321 
330 1 32.8514 17.1462 12.5811 0.000173427 -0.00166403 0.0132502 
338 1 34.4332 16.1097 17.4118 -0.00508113 0.0202875 0.00659518 
328 1 31.8692 17.527 13.4075 0.0264789 0.0120487 -0.0166385 
325 1 33.5069 17.2028 15.3086 -0.00711257 -0.0150893 -0.00271469 
337 1 32.2607 17.0119 17.5418 -0.0127008 -0.0343593 -0.0132973 
326 1 32.1987 17.4814 14.8914 0.0165542 -0.00332118 -0.0202381 
331 1 33.4548 17.0552 16.8314 -0.00460069 -0.0125634 -0.00957913 
68 2 28.6792 18.3058 13.1701 -0.0408543 0.0764799 0.0939929 
343 1 29.5466 17.7447 13.7822 -0.00377779 -0.00922025 0.00796186 
340 1 29.6174 17.6135 15.1829 0.0222761 -0.0157055 0.00677483 
332 1 31.0011 17.0499 15.6849 0.010596 -0.0402965 0.0131475 
339 1 30.7764 16.9131 17.1286 -0.0168192 -0.0103909 -0.00782405 
351 2 30.4462 16.9341 18.1805 -0.0625562 0.0673733 0.0108007 
334 1 30.5495 17.8182 12.7292 -0.0172832 0.0126335 -0.0156167 
349 2 32.4366 16.7495 18.467 0.0735187 0.0577851 0.00489721 
135 2 31.1372 13.904 23.9182 -0.0828582 -0.117255 0.0384066 
85 1 33.9432 33.4558 14.8364 -0.0036409 -0.0445206 -0.0229527 
87 1 35.617 32.1989 13.2034 0.0126952 0.000854881 -0.0169479 
80 1 34.9442 32.9395 14.1159 -0.00699782 0.00618084 -0.00985803 
100 2 33.2897 32.8539 15.7936 -0.096261 0.0962679 -0.00365328 
350 2 34.1577 16.1514 18.5818 -0.0700217 -0.0154934 0.0151156 
282 2 30.899 13.5737 24.2952 -0.0433394 0.0548988 0.00237967 
504 2 25.5065 22.8206 35.319 0.014277 -0.04394 -0.11197 
71 2 25.8847 22.8728 34.7451 -0.0018549 0.0753468 0.029935 
192 1 41.6173 3.79072 11.4734 0.0272479 0.0201239 0.0185439 
133 2 40.9849 10.5426 11.7906 -0.0416706 -0.0522515 -0.0142911 
248 2 59.7677 5.66128 -0.853989 0.0133141 0.00715771 0.0239277 
176 2 59.2208 5.01749 -0.311698 0.0834656 0.0529586 0.0546833 
503 2 38.1212 -3.28564 1.93625 -0.0162658 0.0697711 0.00897579 
184 1 38.1927 5.06011 10.8141 0.0239274 -0.0159495 0.00683584 
215 2 40.0183 2.14981 10.4432 0.0318926 -0.00829142 0.0165012 
203 1 40.446 4.2818 10.5145 0.000872418 -0.0329904 0.0116209 
190 1 38.2089 3.59532 10.537 -0.0122514 0.0117127 0.00797309 
200 1 39.6374 3.1906 10.407 0.00156962 -0.00208329 -0.00295002 
186 1 39.5473 5.43093 10.5361 -0.0033704 0.0112716 -0.00696963 
199 1 36.6767 3.32496 10.3173 -0.0197264 -0.0194005 -0.0147231 
198 1 40.1939 9.55278 11.9205 -0.0271644 -0.00612676 0.0189422 
209 2 38.2943 10.8835 11.4069 0.00138789 0.00308819 0.06484 
197 1 37.9027 9.93978 11.0442 0.00209137 -0.0133538 0.0181466 
194 1 36.5838 9.42604 11.1837 -0.00209321 -0.00124994 0.0121965 
187 1 36.2021 7.9846 11.186 -0.00840941 0.00987325 0.022967 
182 1 37.0641 5.90867 11.0862 0.0159906 0.00166034 -0.0222157 
183 1 38.8007 7.48258 11.7605 -0.00688268 -0.00914397 -0.0103393 
189 1 38.9225 8.90078 11.3429 -0.00766639 -0.00892292 -0.00950465 
181 1 37.5277 7.21435 11.4201 0.00266228 -0.0170896 0.0192005 
185 1 39.8716 6.60353 11.333 0.0046203 0.000236056 -0.0016842 
191 1 41.0943 7.16139 11.5121 -0.00173059 -0.0114806 -0.0167509 
210 2 56.4048 -5.28573 -10.7262 0.0884495 -0.0637813 0.0888985 
213 2 41.8991 6.83478 10.7315 -0.0166715 0.00112678 -0.0472629 
33 2 38.2564 11.3632 -7.18905 0.063307 -0.0752798 -0.000208017 
284 2 56.0731 -4.84889 -11.0484 -0.0499311 -0.0249383 0.120195 
214 2 42.4496 8.69108 11.9915 0.0432202 -0.0207067 0.00954361 
201 1 41.3772 8.58732 12.1051 -0.0167726 -0.00887279 -0.034663 
202 1 42.4533 3.52423 12.4145 0.00719707 0.0257259 -0.0252832 
204 1 43.3762 3.49663 13.4382 0.00273725 0.0182938 0.0255418 
212 2 43.5914 4.23731 14.2454 0.0837755 -0.0103533 0.0280783 
485 1 38.2767 29.5673 11.9202 0.0229868 -0.0205594 0.00570733 
287 2 37.4728 11.9127 -6.9771 -0.146968 -0.0798298 0.066604 
69 2 42.0445 17.57 -10.4309 0.0155341 0.0770573 0.0677423 
66 2 44.0714 19.9245 -8.60672 0.0921892 -0.0162152 0.0738884 
65 2 43.2928 23.2578 -10.8106 0.00667008 -0.039584 0.145122 
54 1 43.0235 17.8421 -10.8161 0.00695527 -0.00574578 0.00975049 
47 1 43.2784 21.2853 -10.1212 -0.0286714 -0.00850884 -0.0204043 
57 1 43.7197 20.1152 -9.60977 0.013614 -0.00705366 -0.0270532 
58 1 43.4756 19.3282 -10.9708 -0.00496171 -0.00812809 0.0518601 
45 1 42.8664 22.3295 -10.9558 -0.0141149 -0.00151326 0.00961215 
498 2 39.2823 29.4064 11.6893 0.015344 0.0303204 0.0047443 
450 1 57.3597 33.1042 -2.07022 0.0266197 0.010728 -0.00866468 
453 1 58.2015 33.112 -0.906478 0.0106454 -0.00604321 -0.0206069 
443 1 59.3541 32.885 -0.969749 0.0105387 -0.0109811 -0.0113848 
497 2 42.5988 18.0679 7.48295 -0.00684823 -0.00106485 0.0352318 
60 1 43.5904 16.583 -11.6633 0.0225314 -0.00442989 0.00100062 
458 2 58.829 27.9558 1.20222 0.0664559 -0.0334504 -0.0528483 
446 1 59.1266 28.6553 2.10437 0.0288067 -0.0140544 0.012183 
441 1 58.7803 30.5857 0.674791 -0.0100948 0.00220178 -0.0101995 
449 1 58.7469 30.0698 2.08359 0.00512985 0.00144703 -0.0193916 
462 2 57.6727 34.1719 -2.71335 0.00873956 0.082595 0.0431272 
465 2 58.8859 31.9449 1.05726 -0.0302155 -0.0275436 0.0340588 
464 2 58.7123 30.7653 2.9157 0.0671408 -0.00641566 -0.0142358 
461 2 58.1028 30.4271 -0.224875 0.107372 -0.0570808 -0.0139265 
170 2 55.0121 32.949 -7.53704 -0.0877766 -0.0392434 -0.0256624 
64 2 55.0317 32.3825 -7.78136 -0.0123014 -0.161171 -0.00953168 
62 2 44.549 25.6907 -11.4771 0.00867552 0.0655173 0.0800779 
99 2 37.5361 32.8516 12.0409 0.0407224 -0.0366621 0.0611783 
108 2 37.5492 28.9304 11.6924 0.0702493 0.0119382 -0.0589389 
354 2 37.0964 14.2687 14.9294 0.0306302 0.0840856 -0.0356087 
216 2 37.5752 15.8868 12.873 0.0498023 0.0396319 -0.0235469 
353 2 36.4437 15.186 16.7027 0.0594598 -0.051849 -0.0275607 
61 2 43.9434 26.9393 35.4639 -0.000349377 -0.0154755 -0.0112856 
345 1 36.4714 15.6893 12.9802 -0.00376864 -0.00064416 0.00124879 
50 1 44.2473 24.7351 34.7704 0.0325138 0.00657779 -0.0104924 
494 2 37.8635 32.4543 13.7819 0.109629 -0.0118711 -0.0532429 
482 1 37.6879 30.918 12.36 -0.00277401 -0.019026 -0.011175 
342 1 36.4751 15.1308 14.2926 0.0188086 0.00256481 -0.019937 
53 1 44.4228 25.8306 35.4543 -0.0118069 -0.0150093 0.011697 
540 2 42.678 15.1534 33.2436 -0.0280549 -0.0589373 0.0552062 
537 2 42.6757 15.8774 32.8776 0.00336839 0.0585685 0.0949461 
67 2 43.8382 18.0763 30.0625 0.0103441 -0.0290106 -0.062898 
72 2 44.8492 16.9176 32.1862 0.0408007 0.0768562 0.0186565 
48 1 44.3603 16.8929 35.2484 0.00616207 0.0387379 -0.0171975 
59 1 44.5385 17.6884 32.9195 -0.00481599 0.00887915 0.00509226 
56 1 44.7386 17.8063 34.3694 -0.00158053 -0.0148247 -0.0271362 
475 1 37.2894 32.1319 12.8726 0.0132366 -0.0160282 -0.00778608 
63 2 43.9664 22.3136 29.8443 -0.021441 0.00436592 -0.0190251 
51 1 44.0458 21.5584 30.632 0.0108961 0.0120401 0.0176571 
52 1 44.1761 20.3833 30.469 0.0169512 -0.00938503 0.00746191 
55 1 44.1712 19.0176 30.7508 -0.00200719 -0.0314917 0.00742306 
44 1 44.1547 22.0689 32.17 0.0206925 0.008511 -0.0206902 
46 1 44.2366 18.8604 32.1991 -0.0128152 -0.00708914 -0.00875002 
40 1 44.5055 19.9419 33.2882 0.0164534 -0.0119327 0.00452379 
38 1 43.9459 21.1436 33.2888 -0.0135374 0.00278676 -0.00744327 
42 1 44.4848 19.2765 34.6628 -0.0271415 0.0143439 0.00916184 
37 1 43.8729 22.1336 34.5279 0.00408462 0.0138764 -0.00527061 
39 1 43.1823 21.5958 35.6106 0.0131635 -0.00121143 0.00985489 
41 1 43.5813 20.0115 35.5824 -0.027517 -0.00231712 -0.00269291 
49 1 44.0986 23.3209 32.6837 -0.012324 0.00674799 -0.0060225 
43 1 43.8004 23.6801 34.0265 0.0022868 0.0085474 -0.00871429 
113 1 64.2443 -1.52303 -9.36342 -0.00768806 0.0184411 0.00990908 
120 1 64.3211 -2.37045 -7.11884 0.00170935 0.000780638 -0.000154793 
142 2 62.6193 -3.19047 -6.587 0.0973611 0.122532 0.0332431 
119 1 62.7736 -1.39755 -9.5548 0.0216152 0.00714594 0.023527 
130 1 61.9273 -1.38529 -8.3478 0.00763307 0.0131766 -0.00558537 
129 1 62.0584 -1.81515 -10.8628 -0.0555036 -0.00954379 0.0166395 
132 1 62.7607 -2.23414 -7.27888 -0.0287902 -0.0229318 -0.0137069 
111 1 64.8587 -1.04444 -10.6131 0.0124498 -0.00835741 0.00476614 
114 1 65.1605 -1.97645 -8.42672 -0.0246356 -0.012341 -0.0157961 
141 2 61.0793 -2.47259 -10.818 -0.0285009 0.0601307 -0.0526206 
124 1 68.9386 0.193256 -8.78468 -0.0216113 -0.00404524 0.00318195 
118 1 67.2336 -1.22652 -7.04589 -0.0120045 -0.0194692 0.0152352 
112 1 66.4789 -1.31457 -8.3125 0.00560566 -0.00632933 -0.00528349 
116 1 67.9966 -0.450153 -9.77745 -0.00231438 0.00760142 -0.0424813 
110 1 66.6536 -0.475257 -9.2804 -0.00145105 0.0221444 -0.0334908 
109 1 66.0786 -0.518409 -10.548 -0.00464225 -0.0340673 -0.00645842 
127 1 68.241 -0.127062 -7.57859 -0.0570115 0.0171205 0.0057999 
205 2 70.0108 0.226144 -8.6883 -0.0141508 0.021494 -0.00608953 
117 1 64.0513 -0.675644 -11.8436 -0.00540962 -0.0138825 0.00549142 
123 1 68.9399 -0.827002 -10.8382 -0.00132281 0.00277013 0.00134332 
496 2 70.0532 -0.963308 -10.6024 -0.0188012 -0.00814779 0.0572848 
97 2 78.2047 -11.8452 3.51318 0.0170231 0.0181101 0.0572157 
84 1 77.7895 -7.40444 -0.993489 0.00999167 0.017917 -0.00994238 
106 2 77.5786 -6.87346 -2.81285 0.0449541 0.0138901 0.0658389 
95 1 76.3648 -7.41334 -0.946443 0.0203612 -0.00183594 -0.016722 
96 1 78.4905 -6.83066 -2.21629 0.0129348 0.0111904 0.00485162 
93 1 81.577 -8.93136 -0.803201 -0.00143647 0.00328548 -0.00125909 
77 1 79.6213 -8.39543 0.193102 -0.0183592 0.0086417 -0.0223199 
83 1 80.4093 -8.01985 -0.778633 0.00935011 0.023761 0.0228638 
90 1 82.0047 -9.68528 0.467659 0.0133824 0.00492525 0.00326182 
94 1 79.8602 -6.95653 -1.92384 0.0134059 0.0102863 -0.00640314 
102 2 79.9676 -6.58777 -3.39363 0.0558857 -0.0122567 -0.0254012 
131 1 65.1059 -1.8016 -6.06842 -0.0073894 -0.0210774 0.0168059 
143 2 64.5992 -2.22699 -5.27858 -0.0282145 0.00470556 -0.0591437 
128 1 66.5273 -1.6089 -5.82266 0.0295136 -0.00429111 0.00414773 
140 2 67.2928 -2.30706 -5.27815 0.0381577 0.0562533 -0.0314594 
107 2 75.822 -6.71601 -1.71839 0.0646374 0.0221192 0.123487 
103 2 74.4372 -9.07912 3.86512 -0.0452204 0.0670628 -0.0711944 
104 2 74.3793 -6.96078 0.243258 0.0213574 0.0281208 -0.133896 
92 1 75.5225 -7.35806 0.0494611 -0.0167733 0.00597941 0.00102268 
91 1 75.0866 -8.43798 2.06734 -0.00161566 -0.031648 0.00222892 
88 1 74.3365 -8.64648 2.93637 -0.0130867 0.0138257 0.0142802 
82 1 76.1337 -8.08896 1.199 -0.013491 -0.00766852 -0.000327322 
76 1 77.5895 -8.47887 1.06682 0.00994305 0.00744101 -0.00796828 
355 2 77.0175 -10.0963 2.88121 -0.0680511 -0.00553836 0.00799554 
115 1 66.765 -0.0747154 -11.8562 -0.0278833 0.00504128 0.00996486 
81 1 81.0572 -10.3869 1.32686 -0.000463563 -0.00436203 0.00978333 
78 1 78.29 -8.19913 -0.176662 -0.0201539 0.00726724 -0.0102016 
89 1 81.0915 -11.8314 1.60973 -0.0297439 -0.0152373 -0.00099261 
75 1 79.9208 -9.69734 0.927184 -0.00372611 -0.00464312 0.00303181 
267 1 77.7733 -2.36242 11.5975 -0.0160984 -0.00284851 0.00536341 
74 1 77.6057 -9.78442 1.96384 0.00258912 -0.0176739 0.0176373 
79 1 78.7133 -11.5914 2.67633 -0.0197019 -0.0197279 2.15511e-05 
279 2 77.699 -1.18753 10.9394 -0.00924715 0.0710235 -0.00446564 
73 1 78.8661 -10.2475 2.15633 0.00164575 -0.0215674 0.0116485 
280 2 75.9328 -0.646159 11.6661 0.0470968 -0.0954552 0.0927375 
126 1 62.5824 -0.830788 -11.8061 -0.015327 -0.0222448 -0.011525 
277 2 79.5113 -3.22552 10.98 -0.0746514 -0.0159056 -0.0640361 
265 1 78.8604 -3.32228 11.8334 -0.0157829 -0.02185 -0.0164762 
263 1 77.4329 -5.31403 17.4365 0.0112068 0.0211876 -0.0124885 
274 1 76.5081 -4.83125 18.5512 0.0152324 -0.00490096 -0.0301907 
276 1 75.1181 -4.54414 18.4145 0.0248059 0.0262688 -0.0191567 
288 2 74.2237 -4.83982 19.0716 0.0584384 -0.00761162 -0.0947545 
322 2 77.7771 -9.15722 13.6541 0.0627837 0.0238819 0.0022134 
306 1 78.1988 -10.0873 13.9268 -0.0197411 -0.0079389 0.00924846 
300 1 82.7312 -7.00904 17.6381 -0.0221556 -0.000179024 0.00076853 
321 2 83.2059 -6.87782 16.6912 -0.0515403 0.000643115 0.07434 
293 1 82.1821 -8.28438 17.8409 0.0200348 0.0131783 0.0126076 
298 1 83.0909 -10.7382 16.9379 -0.0139359 0.00886807 -0.00723641 
308 1 83.9659 -10.0103 16.4194 -0.00254487 -0.000342015 0.00488431 
294 1 81.6957 -9.4038 18.2485 0.0137061 0.015445 0.00334808 
139 2 68.8389 0.555779 35.3427 -0.0364274 -0.0272731 -0.0627867 
320 2 80.8804 -8.97353 19.0408 0.00736691 0.0441698 0.0269668 
310 1 78.0804 -10.1479 15.4288 0.0209877 0.0186255 0.0157785 
292 1 81.7654 -10.3464 17.356 -0.00973305 0.018121 0.00699146 
269 1 79.9611 -6.24647 14.1137 -0.0319578 0.00253468 0.00969667 
323 2 82.3753 -6.10212 18.3985 0.0547771 -0.0286839 -0.00709637 
270 1 79.5241 -6.47865 16.7171 -0.00535746 -0.00827365 0.011889 
285 2 80.2786 -7.28812 17.0527 -0.0491564 0.0193809 0.100606 
257 1 77.0798 -4.95145 16.1562 0.0250611 -0.00435474 0.000609872 
264 1 74.8951 -4.39272 16.7642 0.00350435 0.0113914 0.0378519 
275 1 73.5349 -3.71865 16.2842 0.000186687 0.034996 0.000551685 
258 1 75.8387 -4.0487 15.922 0.00043317 0.00490367 -0.018879 
256 1 75.7639 -3.29798 14.4213 0.00110764 0.00169554 -0.0170711 
262 1 74.378 -2.72102 13.9677 -0.0209293 -0.0112139 -0.00116823 
268 1 75.6237 -1.47027 12.4196 0.0257158 0.0337605 -0.00259369 
271 1 74.3634 -1.81934 13.1726 -0.0250931 0.00250756 -0.0292453 
254 1 76.6642 -3.73933 13.2842 -0.00941855 -0.008475 -0.00510806 
272 1 73.4158 -2.8207 15.1581 -0.0160297 0.00724358 0.0145251 
260 1 76.7603 -2.28225 12.4872 -0.00529143 0.00714317 -0.00196982 
255 1 78.2322 -5.13322 15.1321 0.0415612 -0.0145558 -0.00520926 
261 1 79.134 -6.03339 15.3816 -0.00978108 0.00695542 -0.0107572 
253 1 77.8822 -4.63478 13.6448 0.00226023 -0.0168418 -0.0197323 
290 1 80.8808 -11.3954 17.2854 0.00760289 0.00298806 0.00767739 
281 2 80.6894 -5.8695 12.112 0.00257601 0.121285 0.0264304 
259 1 78.9501 -4.45707 12.7728 -0.00942969 0.0112725 0.0206783 
289 1 79.6136 -11.8937 16.886 0.0323461 0.0100099 -0.00864157 
266 1 79.9883 -5.51603 12.9466 -0.00445308 -0.00711202 -0.0137854 
286 2 76.84 -5.11345 19.5426 0.0463995 -0.0143805 0.0316014 
575 2 78.421 -7.09163 18.6277 0.00221132 0.0909697 -0.0272903 
273 1 78.5846 -6.15994 17.7182 0.0146923 0.0123012 0.00166449 
144 2 77.267 0.992746 30.5695 0.0105672 0.0500633 0.148284 
394 2 78.319 0.951483 30.2339 -0.0288373 0.00115348 -0.0139036 
138 2 62.6541 -0.999348 35.0539 -0.0316774 0.0792324 0.0299167 
291 1 78.9039 -10.8444 16.2185 -0.0058711 0.0116381 -0.00294672 
134 2 65.9134 -0.222429 33.5943 -0.0188078 -0.00807661 0.036643 
122 1 66.4397 0.102368 34.7299 -0.0272354 0.0232038 0.00874984 
125 1 65.0411 0.226658 35.0258 0.00390644 -0.011739 -0.00878292 
121 1 68.3154 -0.21428 36.0422 -0.00942063 0.0439024 0.0113824 
457 2 61.4253 26.465 1.84619 0.0799509 0.0907892 0.0414849 
468 2 61.5299 34.2644 -1.22966 -0.0120159 -0.0434822 -0.0389734 
454 1 60.7253 32.602 -1.18688 -0.00988342 -0.0219388 -0.0206306 
456 1 62.0515 33.2744 -1.38383 -0.0108384 -0.00807013 0.0232322 
391 2 80.4104 22.7908 2.21695 0.00599454 0.00501071 -0.036463 
379 1 80.4943 22.4953 3.40056 -0.00939493 -0.00228497 0.00246802 
376 1 80.3761 21.4084 3.81523 -0.000907776 -0.0111103 -0.0266955 
370 1 80.9152 23.632 4.5245 0.00924023 -0.00597618 0.00119963 
368 1 80.3731 20.6503 4.96745 0.0089597 0.00867198 -0.0222506 
387 2 80.2968 18.2529 5.10132 -0.0514163 -0.0507164 0.0368857 
375 1 80.2326 19.2466 5.42072 0.0175342 0.00287523 -0.0135707 
448 1 64.5418 29.3145 2.91269 0.0119846 -0.0218891 -0.00983775 
460 2 65.1965 28.7592 3.62429 0.0723538 0.0137718 0.175833 
434 1 62.4727 29.7958 1.67944 -0.0121425 0.000749735 -0.0145343 
440 1 63.1258 29.0404 2.85282 -0.0029895 -0.0255664 -0.000851822 
447 1 62.8011 27.6389 3.02066 -0.013919 -0.00493363 0.0239571 
459 2 63.537 26.8965 3.13158 -0.0317916 -0.0646186 0.072132 
445 1 61.503 27.5088 2.39242 0.0303466 0.0113118 0.0169364 
495 2 78.1634 23.5859 11.2528 -0.0570978 0.0133266 0.0769722 
395 2 82.691 24.4121 3.51634 0.0688367 0.021672 0.0388989 
380 1 82.0148 24.6114 4.43649 0.0124635 -0.00402845 -0.019836 
392 2 82.2818 26.797 5.3165 -0.0631444 -0.0415484 -0.0785099 
383 1 81.9244 25.6985 5.18983 0.036796 0.0123178 -0.00750438 
463 2 66.1386 30.8293 2.76475 0.00847329 0.0600099 -0.0289009 
451 1 65.2024 30.4585 2.44623 0.00172535 -0.0113953 -0.0289743 
433 1 61.0924 29.9664 1.81832 0.00264392 0.016257 -0.0194803 
436 1 63.2283 30.7696 1.00298 0.012461 0.0495686 -0.0141927 
455 1 64.3985 32.9414 0.0861266 0.00330687 0.00247773 0.005081 
452 1 65.1886 32.3355 1.22415 0.0269406 -0.00165568 -0.0111317 