ITEM: TIMESTEP
490000
ITEM: NUMBER OF ATOMS
576
ITEM: BOX BOUNDS pp pp pp
-1.2000000000000000e+01 8.4000000000000000e+01
-1.2000000000000000e+01 3.6000000000000000e+01
-1.2000000000000000e+01 3.6000000000000000e+01
ITEM: ATOMS id type x y z vx vy vz 
388 2 1.10974 -9.86572 6.40463 0.106174 -0.0164479 -0.0470505 
434 1 -6.11686 5.76125 8.86925 0.00461475 -0.0222243 -0.0191202 
466 2 -5.9692 1.36976 4.76487 -0.0641594 -0.0353793 0.129811 
456 1 -6.17948 3.42879 4.499 -0.00613201 -0.00418337 -0.0100017 
468 2 -5.98781 3.75072 3.41588 0.0451468 0.0194244 0.0462436 
454 1 -6.32917 2.39898 5.17443 0.00209929 0.0200972 -0.0187923 
444 1 -6.19804 4.57093 5.36319 -0.0175621 0.00485609 -0.00498525 
452 1 -5.66193 6.8956 5.39218 -0.0287225 -0.00120012 -0.0131671 
455 1 -5.73559 5.75136 4.58694 0.0307995 0.00118388 -0.00916977 
467 2 -5.39833 5.84603 3.46008 0.108322 0.0741529 0.031906 
387 2 3.52548 -7.81768 6.71728 -0.0449976 -0.0488575 -0.00405931 
379 1 1.95314 -11.6988 7.30607 0.020569 0.000200948 0.018328 
364 1 3.88396 -11.3761 9.06472 0.0268682 0.00368596 0.00797663 
363 1 5.56238 -9.76674 11.114 -0.0283631 0.00162455 -0.00797685 
362 1 3.96229 -9.98731 9.25842 0.000910666 -0.0250455 -0.0226173 
361 1 4.94274 -9.21819 9.94624 0.00775946 0.00228891 -0.0300317 
374 1 4.52856 -7.0957 11.0655 0.011125 -0.00825365 -0.0121272 
376 1 1.70512 -10.3165 7.41266 -0.0233669 0.0169133 0.0294447 
368 1 3.02746 -9.64628 8.01625 0.0113108 -0.00368572 -0.00865856 
367 1 4.55595 -7.80704 9.92671 -0.0224373 -0.00955904 0.00765589 
375 1 3.28495 -8.23649 7.53429 0.00546106 0.0275666 -0.0177908 
385 2 2.95749 -6.7675 8.98581 -0.0528326 0.0293663 -0.0241708 
373 1 3.61189 -7.5309 8.75206 -0.0346925 0.0172529 -0.00390388 
445 1 -5.31314 5.51361 11.5001 0.00532514 0.0148941 -0.00734326 
365 1 5.59899 -11.0924 10.9402 0.00380745 0.00413407 0.0242109 
459 2 -5.89736 7.72903 11.5823 0.0923904 -0.0297543 0.039816 
386 2 4.6536 -6.12217 10.7756 0.0505571 0.0202464 -0.0524262 
446 1 -6.50892 3.13425 11.4427 -0.0193402 -0.00534829 -0.00256614 
436 1 -6.57052 5.91553 7.48681 0.00189976 0.0103594 -0.0333367 
371 1 6.31016 -11.7669 12.0741 0.0196399 0.00630066 0.0154422 
447 1 -5.53796 6.80796 10.864 -0.00824884 0.00049642 -0.00452889 
433 1 -6.11107 4.37477 9.44346 -0.00898003 0.00745439 -0.00255094 
453 1 -7.21292 1.2486 7.41417 -0.00399353 -0.00918127 -0.0169876 
443 1 -6.76189 2.46917 6.70697 0.0238711 -0.00890205 -0.0222679 
435 1 -6.581 3.50981 8.49746 -0.0187562 0.0110503 -0.00972922 
465 2 -7.58847 0.200997 7.06566 -0.0850543 -0.0161533 0.0103067 
450 1 -7.5469 1.34682 8.76007 -0.0104914 -0.0286045 0.0238538 
441 1 -7.16711 2.42718 9.50351 0.00566253 -0.00158428 -0.0109165 
437 1 -6.8377 3.5797 7.13909 -0.00731762 -0.0224348 0.0146052 
449 1 -7.55446 2.13774 10.9942 0.013377 -0.000927077 0.00988168 
462 2 -8.0127 0.387983 9.01274 0.115655 -0.0246482 0.0569821 
439 1 -5.68723 4.31696 10.836 -0.00411548 -0.0128536 0.0101513 
438 1 -6.76574 4.90744 6.65467 0.00273135 -0.0106582 0.0129413 
461 2 -7.2238 1.24999 11.508 -0.0477786 0.0602914 0.0627191 
451 1 -6.44186 8.52852 7.32649 0.0128387 -0.0407094 -0.0125006 
463 2 -6.39355 9.57306 6.67308 -0.0057371 -0.0285217 -0.000329004 
448 1 -6.58121 8.31809 8.73928 -0.019003 0.0129113 -0.00786374 
440 1 -5.99453 7.11015 9.55629 0.0241581 0.00417806 0.0111183 
442 1 -6.12077 7.14053 6.81115 0.0166197 -0.0246352 -0.0052253 
460 2 -7.23632 9.34629 8.84308 0.0359421 0.0144373 -0.0123216 
369 1 5.82566 -8.8422 12.0144 0.00404452 0.0117939 -0.0094155 
11 1 10.2941 -11.6569 24.2336 0.0015007 -0.0281263 -0.00852848 
393 2 8.01014 -11.2011 13.6634 -0.0328176 0.0128183 0.0209107 
458 2 -5.5925 2.60535 11.7849 0.0528168 -0.0413312 -0.0781491 
249 2 -5.40188 6.16996 15.5587 0.00807143 0.00378247 0.0206595 
237 1 -4.63 6.55734 16.1216 0.0392413 0.0330961 0.00240196 
250 2 -4.73654 3.9244 16.6359 0.018228 -0.0118372 -0.0118542 
457 2 -4.81412 5.34852 12.4033 -0.0788852 0.0135792 -0.048217 
495 2 6.26775 -9.8959 14.3294 -0.0441588 -0.0652446 0.0250259 
238 1 -3.93893 4.32286 17.5836 0.0054005 -0.0110673 -0.0151722 
227 1 -4.05024 5.74513 17.2716 -0.00564438 0.00174894 0.00692418 
246 2 -5.40607 8.41143 15.8795 0.0275162 -0.0186536 0.0849677 
234 1 -4.68477 7.74917 16.4261 -0.0263082 0.00498675 -0.0118289 
233 1 -4.84302 10.3043 17.4293 0.0135226 -0.0163016 -0.00529467 
245 2 -4.83861 11.3025 16.7844 0.0404837 0.0820943 0.0536798 
225 1 -4.1586 9.01302 17.1367 -0.00248206 -0.0169885 0.00583837 
377 1 5.35623 -7.66115 11.9433 -0.0176155 0.00486475 -0.0102813 
252 2 -2.85939 2.49012 18.5414 -0.140903 -0.0280477 -0.0145353 
240 1 -3.12453 3.59159 18.66 -0.00394166 0.0155729 0.0280023 
228 1 -3.04868 4.60741 19.7751 0.00648105 0.0190821 -0.00741759 
222 1 -2.80838 6.08107 19.5473 -0.0061181 0.0136776 -0.0152523 
239 1 -2.95105 4.13927 21.1504 -0.0140459 0.0076446 -0.0198147 
248 2 -3.08911 3.05506 21.4002 -0.0847129 -0.0242601 0.112618 
236 1 -2.44262 4.90923 22.2537 0.0198969 -0.0084518 -0.0183622 
226 1 -1.79625 6.12071 21.962 -0.0150389 -0.0194322 -0.0211458 
251 2 -1.65814 4.16225 22.9492 -0.00490159 0.111623 -0.0335566 
221 1 -3.47895 6.65424 18.4299 -0.010369 0.0111587 0.013873 
220 1 -2.16932 6.71998 20.5546 0.00765753 -0.0139185 0.00194798 
235 1 -1.26175 7.03306 22.9399 0.0152829 0.00343277 0.02103 
242 2 -3.68083 11.2195 19.1431 -0.0149846 0.026903 0.0662495 
219 1 -3.41047 8.12535 18.2241 -0.00324706 0.0109026 0.0056463 
218 1 -2.42176 8.04003 20.5658 -0.00457079 0.0255446 -0.0209685 
217 1 -3.42175 8.50701 19.7354 -0.00879399 0.016991 0.00314692 
230 1 -4.53194 10.5698 18.8094 -0.00914407 0.018372 0.014819 
223 1 -4.29677 9.53154 19.8707 -0.00715768 -0.00319942 -0.0228706 
224 1 -1.54905 8.74051 21.5591 -0.0294456 -0.00562494 0.0181744 
231 1 -2.69994 10.0204 22.1378 -0.0127826 0.01265 -0.00860606 
229 1 -4.0959 9.80943 21.5347 -0.029269 0.00719705 -0.00584407 
232 1 -0.547413 8.20332 22.3888 0.000498613 0.0156345 -0.0122063 
243 2 -2.61297 10.6669 22.9986 -0.0129864 0.0121953 -0.00808974 
241 2 -4.0946 8.62406 21.7514 0.0428603 -0.0202663 0.0213357 
378 1 6.38791 -9.70406 13.265 0.0241007 -0.0608771 0.0269094 
36 2 10.8147 -9.33928 26.8561 0.0192519 -0.023746 0.0481155 
34 2 10.5959 -9.2914 24.4888 0.0752795 0.00308569 -0.0317896 
22 1 10.8533 -10.273 24.8334 0.0109119 -0.00535093 -0.00807072 
24 1 11.016 -10.507 26.1165 0.0121303 -0.0116143 0.0230798 
417 1 11.5953 3.53421 29.6277 0.0163396 0.00619196 0.0110779 
407 1 11.6237 4.90633 30.1591 -0.038188 -0.0124365 -0.0196159 
244 2 0.440963 8.81361 22.5041 0.0358775 -0.0267581 -0.0349141 
247 2 -0.815202 6.49213 23.7893 -0.0221291 -0.128944 -8.25116e-05 
418 1 9.95391 7.53714 27.458 -0.00784887 -0.0232109 0.00707637 
430 2 9.40547 8.09886 26.5359 -0.0523801 0.0653894 -0.0643184 
420 1 10.2974 7.85808 28.8426 -0.0349793 -0.00554561 -0.00884893 
432 2 10.6727 6.62978 27.2262 0.0793972 -0.0544463 6.00385e-05 
429 2 10.6919 5.4131 30.506 0.0703772 0.0873588 0.0157444 
408 1 11.5451 8.16599 29.6165 -0.00696051 0.0260261 -0.0292713 
12 1 11.934 -11.4127 26.5888 0.00838405 0.0257302 -0.0244301 
381 1 7.18765 -10.8871 12.7968 -0.0145786 -0.013356 0.00436955 
431 2 11.6965 10.4458 29.9029 -0.0308723 -0.0592526 0.0257365 
389 2 5.65582 -6.95869 12.7743 -0.0309042 0.0445768 -0.00517229 
33 2 8.56359 -11.5069 23.2329 0.0212824 -0.0499099 -0.0183192 
394 2 -6.54682 24.7892 7.48513 -0.00973111 -0.0209438 0.00988117 
395 2 4.70854 33.1882 8.45398 0.000610083 0.0428643 -0.0792521 
392 2 1.63652 33.8046 8.3927 0.0275913 0.0548585 -0.00467233 
380 1 2.68665 34.2846 8.67353 0.00938645 0.022422 -0.0099378 
383 1 4.13253 34.0397 8.7349 -0.0205764 -0.0250693 0.0171618 
372 1 4.81639 34.5255 9.98745 -0.00486567 -0.0233795 -0.0161132 
370 1 2.86871 35.632 8.21556 0.0205921 2.49264e-06 0.0399857 
384 1 5.69552 33.9534 11.1976 0.00143559 0.0153912 0.0123589 
396 2 6.21623 33.0051 11.1655 -0.0447056 0.00645594 0.0071713 
382 1 6.72023 34.8075 11.5999 -0.0113528 0.00285458 0.0159036 
391 2 1.19673 35.6159 6.60251 -0.0125712 0.0411335 -0.0137508 
390 2 7.73012 34.8598 12.0185 -0.00439519 0.0105251 0.019064 
366 1 4.85165 35.9548 9.96717 0.0220417 0.00749679 0.00306321 
215 2 -10.0935 26.5044 16.3071 -0.0609061 0.0656429 -0.0336363 
203 1 -9.60566 27.3665 16.7052 -0.000864113 -0.000498346 -0.016594 
192 1 -9.88525 27.6667 18.0487 -0.00111326 0.0061178 -0.000482967 
212 2 -8.81285 28.8793 15.0382 0.0480474 -0.0336516 0.000241006 
200 1 -9.11563 28.5721 16.0522 -0.0094014 0.00195388 -0.00246722 
190 1 -9.15281 29.879 16.5449 0.0118545 0.00667869 -0.00137568 
184 1 -9.40828 29.9449 17.9748 -0.0136101 -0.00841195 0.000239309 
199 1 -8.14391 30.6911 15.7373 0.0202934 0.0167702 0.030297 
211 2 -7.67176 30.4934 14.6358 -0.0216675 0.0361924 0.113265 
196 1 -7.85292 31.7781 16.235 -0.00637158 -0.00613275 -0.0118072 
208 2 -7.42349 32.494 15.6747 -0.0296233 0.0349479 0.0593033 
188 1 -8.57499 32.0682 17.3955 -0.00795532 -0.0278828 0.00968782 
207 2 -7.86102 33.9907 17.3594 -0.0829047 0.0486444 -0.0352836 
195 1 -8.2691 33.2961 18.0324 0.00966098 -0.0115335 -0.0137097 
89 1 8.93366 24.5322 22.7522 0.0241778 0.0343702 -0.00213857 
81 1 9.22392 23.0497 23.5678 0.0260197 0.0294958 0.000419712 
86 1 9.86805 25.0093 21.9021 0.00176882 0.0212636 -0.00787807 
75 1 10.5595 22.3545 23.2432 -0.0160874 0.00218399 0.0108934 
77 1 10.9018 21.2144 24.0518 0.0119778 0.0163652 0.00866774 
79 1 11.3056 24.2077 21.967 -0.00470095 -0.0103096 0.00624229 
73 1 11.7172 22.9283 22.5182 0.00316423 -0.00247129 0.00322539 
8 1 11.3541 31.8202 26.5413 -0.0122711 -0.0119871 0.0042905 
27 2 10.7334 31.6723 27.6756 -0.00063143 -0.0100076 -0.0513543 
186 1 -9.67462 28.8955 18.7125 -0.0182436 -0.00996607 -0.00527723 
204 1 -10.3749 26.724 18.9248 -0.0115003 -0.0275641 -0.00805821 
214 2 -10.8491 28.5184 21.9754 -0.0258262 -0.102393 0.0825965 
191 1 -10.3521 28.1882 20.9697 0.0102778 0.0212639 0.0166453 
202 1 -10.7738 27.2663 20.0742 0.0247757 -0.000685127 0.0115821 
185 1 -9.67893 29.1836 20.1054 0.00287585 -0.0193261 -0.0121273 
201 1 -8.6317 28.7631 24.4517 -0.00736181 -0.00468907 -0.00696396 
198 1 -8.64879 29.5929 23.3534 -0.00499878 0.00806315 0.00142048 
213 2 -8.73822 27.8111 24.8402 -0.000180832 -0.0360395 -0.0984262 
101 2 7.92621 23.9779 22.6402 0.000464945 0.0358194 -0.113087 
98 2 10.0528 25.9565 21.2667 0.0755032 0.0379467 0.0490018 
105 2 -11.3932 24.66 17.5344 -0.0403676 -0.0440845 0.00654139 
182 1 -8.82437 31.0729 18.5306 -0.0276362 -0.00879427 -0.0106894 
181 1 -8.80292 31.0632 19.9612 -0.000278768 0.0188048 -0.00821162 
183 1 -8.8351 29.8816 20.7418 0.00497773 0.0128141 0.0219622 
189 1 -8.632 30.3161 22.239 -0.0190956 0.00700944 0.00548377 
187 1 -8.22958 32.5325 20.2472 -0.0100224 -0.00133485 0.0190472 
194 1 -7.60181 32.6094 21.5747 0.0111965 -0.00528565 0.0394451 
209 2 -7.21947 30.966 23.1692 0.0672158 -0.0427191 0.0691995 
197 1 -7.7171 31.4506 22.3672 -0.0141262 0.0252813 0.00640357 
205 2 -7.70004 34.6889 19.0981 -0.102637 -0.0410069 0.0257162 
193 1 -7.77853 33.4915 19.3531 -0.00575142 -0.0041697 -0.00523097 
206 2 -6.8367 33.2436 22.0928 -0.0123921 0.0581664 -0.0234858 
30 2 9.70674 34.9921 21.2212 -0.0597459 0.0691188 -0.00488758 
18 1 9.92148 35.1629 22.3973 -0.00428359 -0.0131451 -0.00982516 
26 2 10.6564 30.4162 21.5781 0.0767942 -0.000220065 0.0200837 
14 1 11.0784 31.4395 22.3445 -0.0151621 -0.000130736 0.00685382 
17 1 10.7293 32.5974 21.749 0.0176417 -0.00616047 -0.00205588 
9 1 10.8003 33.9244 22.3395 -0.00446665 0.00717256 -0.0182388 
29 2 10.3999 32.3184 20.847 -0.0602551 -0.0747006 0.0297467 
100 2 10.8121 23.5598 18.852 -0.0508757 0.0987362 0.0334647 
96 1 11.1241 18.8144 24.8341 0.00537809 -0.0128395 -0.016314 
106 2 8.82177 18.7193 24.6969 0.0749928 0.0282643 0.0675755 
94 1 9.71528 19.2341 24.7346 -0.0269253 0.0119559 -0.00332682 
102 2 7.13792 23.0427 24.8051 -0.041872 0.0332534 0.0502944 
90 1 8.16979 22.642 24.702 -0.0197236 -0.0237605 0.0125332 
93 1 8.60991 21.3959 25.1995 0.00116923 -0.0210436 -0.00909225 
83 1 9.77421 20.5458 24.7315 -0.00054934 0.0102473 -0.0218095 
15 1 11.8524 30.5398 25.8646 0.0103891 -0.00216683 -0.00158362 
7 1 11.6465 31.5848 23.6513 0.012667 0.00239495 -0.0108017 
5 1 11.1699 35.3828 24.4554 0.00119223 0.0198907 -0.0117671 
3 1 11.2869 34.0994 23.727 -0.0111159 -0.0136846 -0.03658 
1 1 11.6269 32.8395 24.2747 -0.00816604 0.0299474 -0.0114335 
179 2 -2.52966 15.453 35.9368 0.0536938 0.0649633 -0.00789985 
21 1 9.16426 35.7731 23.4052 0.0167456 0.0496972 -0.00998344 
6 1 11.7031 35.4671 25.891 0.00584384 -0.00216403 0.0256062 
539 2 -1.96357 15.6761 35.3742 0.0493123 0.0938038 0.0737899 
480 1 32.7347 -2.19906 -11.3175 0.0139563 0.0216236 -0.00232343 
576 2 33.624 10.4941 -6.45897 -0.0753359 0.0857056 0.040728 
490 1 33.0887 -2.18232 -10.2601 -0.0274864 0.00209499 -0.0038554 
489 1 33.7628 -3.51595 -8.04252 -0.00382938 0.00743285 -0.00962223 
492 1 33.7896 -2.53203 -8.9025 -0.0109282 -0.0069731 -0.002516 
486 1 33.6365 -4.51772 -7.34484 0.0161442 0.0136856 -0.00561579 
502 2 34.0968 -1.5814 -8.5317 -0.0780888 -0.0223307 -0.0585756 
543 1 34.1813 8.02154 -10.6998 0.0282896 -0.0172934 0.0112567 
570 2 31.3168 6.52953 -9.5843 -0.00953425 0.0209998 -0.0218449 
545 1 33.7483 9.30104 -10.0658 -0.00882156 0.00906407 -0.00912583 
546 1 34.9898 9.95217 -9.10509 0.0304987 0.0200194 -0.0126932 
503 2 31.3911 -0.480686 -11.7517 0.000318715 -0.103165 -0.105555 
573 2 30.7575 8.8021 -9.20015 0.0783415 -0.00807039 -0.0414019 
552 1 34.7771 11.1184 -8.31944 -0.0311025 -0.0181065 0.0209142 
557 1 33.7483 5.57118 -11.6733 -0.00720189 0.00235523 0.0149255 
574 2 31.731 10.21 -7.65092 0.0568875 0.0218078 -0.00148505 
562 1 32.5148 10.7068 -8.20927 -0.0136509 0.00287669 0.0158762 
561 1 31.5684 8.63522 -9.86575 -0.00519962 0.00925028 -0.0080156 
551 1 32.5331 9.61478 -9.40968 0.0051809 0.00823381 0.00844267 
549 1 33.2663 6.97101 -10.8394 0.0162276 -0.0135685 -0.00164126 
564 1 33.6144 10.9652 -7.43793 0.0256181 -0.00565872 0.0039471 
558 1 31.8698 7.32225 -10.4075 -0.0145378 0.00428684 0.00561897 
541 1 35.7662 7.66357 -10.9938 0.0111642 -0.00393467 0.0121146 
566 2 33.1393 4.4424 -11.8856 -0.042528 -0.11294 -0.0070841 
283 2 34.7787 -5.69554 -1.6353 -0.0626127 -0.0959864 -0.0275976 
119 1 23.1353 -1.07942 14.5604 -0.00267711 0.01272 0.00671001 
130 1 21.6761 -0.758246 14.4702 -0.0265043 0.0195213 0.0237238 
142 2 20.7005 -1.3734 14.4801 -0.0294808 0.0343308 -0.0501678 
141 2 22.726 -2.65171 15.8464 0.0286538 -0.00850924 0.0489568 
138 2 25.7302 -3.03514 16.4634 0.0570277 -0.0327793 -0.0132929 
125 1 27.324 -2.14056 15.3833 0.0094858 -0.0190278 0.0106139 
137 2 27.2795 -3.11377 16.2448 -0.0445007 -0.0673033 -0.0391736 
129 1 23.6554 -2.14736 15.1873 0.0108546 0.0148239 -0.00656718 
126 1 25.0764 -2.39422 15.5251 -0.00295581 -0.0155617 0.0237513 
117 1 26.0207 -1.88732 14.6682 0.0127507 -0.00844388 0.0197668 
134 2 29.244 -1.50375 15.5854 -0.0253894 -0.0631275 0.0628276 
122 1 28.3464 -1.18392 15.0608 -0.00465942 -0.0098753 0.00362097 
128 1 22.6601 3.03573 16.5239 -0.000608326 -0.0194106 0.0151896 
140 2 22.4175 3.43675 17.5165 0.0783009 -0.0834232 -0.0170897 
132 1 21.6138 0.583172 14.4608 -0.0115938 -0.00764311 -0.00716465 
120 1 22.695 1.7488 14.5158 -0.00244774 0.0021636 0.00766258 
144 2 20.2841 0.805769 14.3267 -0.0549878 0.0431748 -0.0539898 
114 1 23.9572 1.26017 13.7638 -0.0132791 -0.0173325 0.0132558 
131 1 22.1414 2.81479 15.2352 -0.0151916 0.0141701 0.0203854 
143 2 21.0589 3.1732 15.7447 0.0531881 -0.0276177 0.0507491 
424 2 16.6104 9.48334 28.7116 0.031363 -0.000511321 0.0443585 
115 1 27.8349 0.152916 15.0556 -0.0278774 0.00680945 0.0124702 
121 1 28.1933 1.57 15.6119 0.00924963 -0.0050767 0.0126097 
113 1 24.1754 -0.142406 14.0013 0.0116018 0.0388766 0.00337133 
123 1 28.6158 2.94504 15.2876 -0.000260048 0.00819854 0.0163848 
109 1 26.6872 0.49238 14.3146 0.00976163 -0.00937231 0.00335945 
111 1 25.6787 -0.52426 14.1437 0.0198952 -0.0138333 0.00584772 
110 1 26.2221 2.08059 14.405 0.0039148 -0.0249936 0.000321719 
112 1 25.0089 2.30619 13.663 0.01562 0.0108267 0.00458675 
116 1 27.0814 3.1818 14.4319 0.00286087 -0.0237062 0.0104472 
124 1 26.7865 4.39924 13.9939 0.00156951 0.0203216 0.0101531 
118 1 24.2972 3.72881 13.6881 -0.0227771 -0.0244983 0.0109891 
136 2 27.7592 5.11473 13.9759 -0.00602475 -0.0299943 -0.0516998 
127 1 25.3152 4.58602 13.7818 -0.0134045 -0.00323644 0.0124692 
406 1 14.0552 8.58702 30.6182 0.0190742 0.01684 -0.00689448 
133 2 28.8753 0.757139 16.6516 0.0587791 -0.0452613 0.030659 
23 1 12.9734 -11.3116 27.3978 -0.0131167 -0.00837077 -0.0197584 
35 2 13.5757 -10.5536 27.762 -0.0016974 0.0558757 -0.00630253 
569 2 36.1728 7.9094 34.7896 0.0459526 -0.0441124 -0.0345524 
416 1 13.0514 9.45298 31.1762 0.00561527 -0.0107414 -0.0224814 
139 2 23.2296 3.8941 14.1039 0.00465901 -0.0495274 0.0459558 
177 2 25.0801 5.65911 14.152 -0.0308614 -0.0253067 -0.0364468 
426 2 13.0618 1.69687 29.6944 0.0724462 0.0732079 -0.0108647 
414 1 12.6659 2.60973 29.0032 -0.0154422 0.029246 -0.00509408 
425 2 13.8786 2.31207 26.6638 -0.0469254 0.101949 -0.0223581 
413 1 14.3126 2.71722 27.5489 -0.0216154 -0.00907877 -0.00155417 
405 1 13.2974 3.75194 28.1934 -0.0247261 -0.0298929 0.00639257 
410 1 15.4811 3.4713 27.2829 0.00623393 0.00756301 -0.0024788 
399 1 13.5015 5.0765 28.4974 0.00118619 -0.0302785 -0.0262655 
401 1 12.5638 5.63403 29.5424 -0.0161766 -0.0102664 -0.00417971 
422 2 16.1645 3.13678 26.5922 -0.081754 -0.0762046 -0.127284 
403 1 15.6761 4.96336 27.5392 0.0195876 0.00959059 0.00235157 
397 1 14.5529 5.73931 28.1377 -0.00985773 -0.0199289 0.00257176 
398 1 14.8838 6.81877 28.8743 -0.00455395 -0.012737 -0.00257945 
404 1 15.8989 7.68195 28.3556 -0.0328939 -0.030261 -0.0111857 
423 2 17.7121 7.58891 27.7842 0.0343981 -0.0219032 0.0217781 
409 1 16.6487 5.95054 27.5354 0.00974048 -0.00813973 0.00763648 
411 1 16.7145 7.22874 27.5963 -0.00640132 0.00371043 0.0189698 
400 1 13.9539 7.55614 29.4989 0.0102027 0.0118616 0.00645454 
402 1 12.6425 7.08233 29.8167 -0.0161255 0.0141549 0.024152 
497 2 34.7933 -4.2482 33.3382 -0.0462224 -0.0277798 -0.0837816 
547 1 35.608 7.34292 35.569 0.0301939 -0.00405911 -0.025295 
428 2 13.2467 10.4973 31.3931 -0.0309971 0.0286642 -0.0461454 
471 1 34.856 -2.24369 32.81 0.0148025 0.0238126 0.00267277 
482 1 35.254 -1.76171 30.6624 -0.00117986 0.0292895 -0.0166164 
108 2 33.2784 -2.16252 29.8214 0.0363196 -0.0262285 -0.000515524 
469 1 33.6299 -1.80124 32.2591 0.0257451 0.018613 0.00310457 
475 1 33.7985 -2.0246 30.7306 -0.000594759 0.0113447 0.00648659 
470 1 33.1951 -0.561752 32.9925 0.0304708 0.0129687 0.00296496 
479 1 34.2772 -3.31588 33.6218 -0.00847739 -0.0272902 0.000838859 
472 1 32.7547 -0.770327 34.3662 0.00535788 0.0106537 -0.00878387 
474 1 33.37 -3.29852 34.6304 0.0140594 -0.0124792 -0.0109923 
478 1 31.7679 -0.176322 35.2133 -0.0117016 0.009079 -0.0241428 
473 1 32.9095 -2.10269 35.2508 0.00550264 0.00220274 -0.00933065 
487 1 31.961 1.28886 35.2245 0.00774451 0.00364366 0.00441628 
476 1 32.8358 0.835811 32.656 -0.017488 0.00687432 -0.0123305 
483 1 33.6737 2.06318 32.108 -0.00447404 -0.00289211 -0.00453524 
493 2 33.9397 3.27476 30.7515 -0.0958326 -0.0683129 0.0348384 
481 1 34.7251 2.37641 31.0928 0.00244877 -0.0143658 0.00840479 
496 2 35.2496 1.57282 30.7003 0.0274291 -0.0990285 0.0592717 
484 1 32.5155 1.63431 34.0078 0.000101148 0.0207728 -0.0118212 
499 2 31.8446 1.71295 36.1421 0.0238854 -0.0751543 0.0757636 
412 1 16.0727 8.79118 29.2913 0.00399188 0.0115882 -0.00892324 
415 1 15.3833 9.26677 30.4818 0.0024161 0.0124809 0.00111498 
427 2 15.9641 10.0373 30.9878 -0.0368324 0.0453958 -0.0793572 
554 1 34.6464 6.24338 35.3638 -0.00103009 0.0118053 -0.0172262 
419 1 11.9527 9.31986 30.1628 -0.0158388 0.00999846 0.0097591 
563 1 35.6551 12.4983 -8.35336 -0.0174434 0.00325455 0.0137943 
575 2 35.9973 13.461 -7.93391 0.0712178 -0.0781965 0.0850838 
92 1 13.1512 18.7639 21.624 0.00763192 0.0125877 -0.0172655 
104 2 13.3853 18.0875 20.7532 0.00626017 0.00296738 0.0395949 
95 1 12.5958 18.0258 22.6908 -0.00588057 0.0298096 -0.0140639 
107 2 12.7879 17.0212 22.7328 0.0405219 -0.000120205 0.00919708 
88 1 12.0568 21.4915 18.9636 0.00393346 0.00774917 0.0164708 
91 1 12.5766 20.9721 20.0632 0.000521503 0.0455829 0.0137589 
20 1 13.6219 35.6977 27.8295 -0.023293 -0.0148075 0.0161398 
103 2 12.2581 21.377 17.9014 -0.0842074 0.099973 0.0211958 
82 1 12.6155 20.0643 21.2311 -0.0147895 0.0247192 0.0147568 
80 1 11.9811 23.2232 19.0838 -0.028558 -0.00788069 0.0210357 
99 2 13.9463 23.559 20.0583 -0.0222918 -0.0971331 -0.0625077 
76 1 12.7052 20.899 22.4949 -0.00553436 -0.00160268 0.00732919 
87 1 12.8989 24.0227 19.8559 0.000709727 0.000155521 -0.00398278 
74 1 12.9618 22.3307 22.3201 -0.0278817 -0.00381459 -0.00370141 
355 2 13.9223 22.5428 22.0529 0.125142 0.00907426 -0.0179897 
85 1 12.0886 24.9436 21.008 -0.0352688 -0.00968627 -0.0114204 
10 1 12.5871 34.4222 27.7415 -0.00707219 -0.00245398 0.00815778 
19 1 12.8577 33.6008 28.7001 0.0101274 -0.0159458 -0.00167425 
32 2 14.5071 35.7035 28.6222 0.0513489 0.0319583 0.0658979 
31 2 13.3012 32.6558 30.5536 0.0364506 -0.185394 0.0681987 
2 1 12.0043 32.9642 25.7126 -0.0131707 -0.00867451 -0.000793066 
4 1 12.1741 34.2587 26.3498 -0.00012151 -0.0109998 0.031441 
16 1 13.1051 32.5196 29.5556 0.0157082 -0.0161493 -0.0320792 
97 2 12.9067 25.7845 20.8243 -0.0525904 0.0375478 -0.0425496 
84 1 12.1162 19.0347 23.795 -0.0178368 -0.00635463 0.00637615 
28 2 12.1622 32.0594 29.1722 0.0467363 0.00234356 -0.00703625 
25 2 13.1719 30.2285 23.8573 0.0273878 -0.0454108 0.0431379 
78 1 11.9865 20.351 23.6266 -0.0144438 -0.000509669 0.00679019 
13 1 12.1474 30.319 24.4216 -0.00112956 0.00708667 0.0111753 
71 2 53.4223 6.5423 -1.00232 -0.123204 0.0115688 -0.010089 
559 1 38.3772 10.5158 -9.07464 0.0181605 -0.0123976 -0.00718343 
556 1 38.7864 9.61708 -9.93676 -0.0143547 0.0207947 -0.00572732 
548 1 38.1652 8.64503 -10.8386 -0.00711315 -0.00272032 0.00892137 
571 2 39.1711 10.8791 -8.40714 -0.00996307 -0.0773189 -0.104913 
568 2 39.7274 9.44704 -10.4839 -0.0712245 0.00893188 0.0951899 
555 1 38.3847 7.44432 -11.3816 -0.00464185 -0.0150575 -0.0232226 
550 1 37.0095 10.5637 -8.64586 0.015086 0.0198308 0.00223879 
69 2 50.5998 11.6747 -3.64222 0.0105811 0.0255102 0.0253691 
542 1 36.5752 8.79395 -10.6147 0.0252836 0.0117703 -0.0377747 
504 2 53.0555 7.13019 -1.3372 0.0343011 -0.0420075 -0.0735971 
64 2 54.3366 8.42875 -11.582 0.0396997 0.0556636 -0.00415651 
54 1 51.4144 11.9855 -4.61203 -0.0116617 0.0205243 -0.00804303 
55 1 52.9209 9.73242 -11.5328 -0.00149504 0.00733659 -0.0251323 
52 1 53.9892 9.35826 -10.8421 -0.0185594 0.0296475 0.00251846 
44 1 53.9343 9.57624 -9.41455 0.0346795 0.0131138 0.0172236 
46 1 52.5067 11.1333 -10.9994 0.0104579 0.0112915 -0.0353578 
39 1 52.4073 11.2542 -6.79944 -0.0215091 0.0104184 0.00599047 
37 1 53.5253 10.5873 -7.27202 -0.00484458 0.00156282 -0.0112073 
59 1 51.2005 11.4733 -11.661 0.00590466 0.00862794 0.0121254 
38 1 53.8698 10.8648 -8.86682 0.0164136 -0.00781083 -0.00272179 
40 1 52.6711 11.4204 -9.50397 0.00600512 0.00501883 -0.0105008 
544 1 36.1721 9.78423 -9.66392 -0.00497224 0.0250281 -0.0170995 
43 1 53.9877 9.50058 -6.57051 0.0122404 -0.00955327 0.0163736 
63 2 55.1711 7.91564 -8.87871 0.0145465 0.0309421 -0.0885967 
49 1 54.9067 8.36047 -7.17651 0.00856818 -0.017193 -0.00471436 
51 1 54.9402 9.05229 -8.43608 -0.00352679 0.0434409 0.00777541 
61 2 54.9621 7.24811 -7.11874 -0.0315278 0.0342084 -0.0493793 
53 1 52.5225 9.85 -4.63667 -0.0072955 -0.000620897 -0.00344682 
50 1 53.5225 8.96549 -5.16085 -0.0214574 0.00801114 0.0058828 
65 2 52.0048 10.1777 -3.95572 0.00284086 -0.113305 -0.00227542 
45 1 52.509 11.1489 -5.30966 0.0150898 2.61238e-05 -0.00626528 
62 2 54.2158 8.27823 -4.49747 0.0201251 -0.0732387 0.0315212 
282 2 52.8895 7.58406 19.7989 0.123195 0.0777269 0.0417328 
135 2 53.0896 7.54137 18.8884 -0.0596474 0.0386714 0.0165476 
494 2 37.4971 -1.45432 30.8749 -0.0699858 -0.00408023 -0.0108955 
348 1 57.7379 -11.1663 30.0462 0.00463261 0.00484333 -0.00323577 
359 2 55.6295 -9.71116 28.1731 -0.050724 0.0914609 -0.00478098 
339 1 52.0392 -11.9518 35.0677 -0.028854 -0.00955405 0.0111256 
340 1 52.6034 -9.98955 33.6814 0.0125849 0.00992608 0.0115042 
352 2 51.8372 -9.36873 34.2908 0.0877604 -0.112798 -0.0273066 
332 1 52.5565 -11.4385 33.8317 -0.0187978 -0.0126204 -0.0213934 
343 1 53.1861 -9.68243 32.4607 -0.0030664 -0.0361736 -0.0341775 
357 2 52.4973 -8.42908 32.577 0.00634629 -1.54681e-06 -0.0633495 
351 2 51.4151 -11.2286 35.8581 0.0264935 0.0148171 0.0800841 
344 1 54.4147 -9.3823 30.2408 -0.0422104 -0.0222196 0.01085 
356 2 53.9616 -8.52023 30.0775 -0.0465246 -0.0145273 0.0113877 
326 1 53.8076 -11.7638 33.1959 0.00396242 0.000178314 -0.0133088 
330 1 55.5294 -11.7423 31.1294 -0.0401133 -0.0299621 -0.0113516 
328 1 54.4485 -11.2981 31.8138 -0.0205163 0.00631693 0.0261019 
336 1 56.1868 -11.0205 30.0059 -0.0181826 0.0158078 0.00894438 
347 1 55.4727 -9.98419 29.2929 0.00900495 -0.00118324 -0.0177098 
334 1 53.8437 -10.269 31.2286 0.0303261 -0.000818455 -0.0166875 
68 2 50.7521 10.7718 36.0588 -0.0453791 -0.0622199 0.0581236 
500 2 38.8653 -2.19487 34.4015 -0.0367995 0.0268898 0.0181049 
491 1 38.0617 -2.35237 33.9239 0.0154279 0.0134556 -0.00565864 
498 2 37.5437 -3.2912 33.9387 0.0156813 -0.0958771 -0.0116987 
501 2 38.2553 -0.744911 32.6089 -0.0115904 0.0388258 0.0186893 
488 1 37.4704 -1.3457 33.1497 0.012666 0.000693532 0.00792632 
485 1 36.5348 -1.53371 31.1012 -0.0261999 0.0198274 0.0003704 
553 1 38.7176 6.24889 35.8673 0.00223038 -0.000977332 0.00822025 
67 2 52.4038 9.45279 35.5879 0.119815 -0.018964 -0.0262661 
360 2 58.275 -10.1671 29.8011 0.0331025 -0.0194616 0.0569828 
565 2 37.8921 5.84114 35.2152 -0.0291677 0.0157005 0.00640023 
477 1 36.2561 -1.73606 32.4839 0.00128897 -0.000364675 0.00903467 
567 2 39.669 6.06547 35.3088 0.0511287 0.061711 -0.0186462 
572 2 37.8915 12.7425 -8.54989 0.00594667 -0.0341177 -0.010932 
47 1 50.9465 13.4436 -6.68252 -0.0155201 0.00867369 0.0305886 
58 1 50.1143 13.8911 -7.63854 0.0278124 -0.038174 -0.0148221 
60 1 49.8145 13.9784 -8.95087 0.0197311 0.0132528 0.0276778 
70 2 48.8285 14.4843 -9.2001 -0.0191228 0.075978 -0.0292259 
48 1 50.948 13.225 -9.57325 -0.0243047 0.00169102 0.0342113 
56 1 50.5645 12.5792 -10.8592 -0.0253349 0.00722051 0.0203253 
279 2 56.6795 31.1082 6.74207 -0.0273468 -0.0335525 -0.0213536 
57 1 50.6289 13.0382 -5.22658 0.0122925 -0.0221204 -0.00509296 
66 2 49.4382 13.4196 -4.72698 -0.0528236 -0.039756 -0.034728 
286 2 59.1975 24.1755 0.351852 0.11454 0.0553214 0.00623061 
41 1 52.0278 12.5907 -7.26925 0.0269851 0.00844291 -0.0160619 
421 2 58.8599 28.6789 -5.23979 0.0279399 0.122245 -0.027661 
270 1 59.036 28.0208 -0.159085 0.00236396 -0.000273758 0.00836633 
288 2 57.6976 22.6111 2.04203 -0.0557937 0.0686303 -0.0182987 
273 1 59.1337 26.5499 -0.041122 0.000671863 -0.00430968 -0.00919207 
281 2 57.1059 30.2968 -0.215252 0.00298955 0.0467355 -0.029283 
287 2 58.578 22.7701 4.39896 0.0807132 0.0128472 -0.0361736 
42 1 52.0584 12.4825 -8.71412 -0.0139414 -0.0254086 -0.007592 
260 1 57.6564 29.2223 5.83285 0.00876832 -0.00155622 -0.0063795 
263 1 59.4495 26.1062 1.26588 0.00137112 0.024772 0.0287134 
275 1 58.1296 23.797 4.67365 -0.00395558 -0.0220732 -0.00139297 
264 1 58.0427 24.503 3.40146 0.00525329 0.00349432 -0.00489521 
272 1 57.3798 24.3687 5.814 0.0160403 -0.0225774 0.00213142 
258 1 57.6818 25.9417 3.41503 0.0148725 -0.00790299 0.0171903 
262 1 57.7907 25.8196 5.84758 0.00376915 0.00526313 -0.00216184 
257 1 58.6082 26.5483 2.269 -0.0223044 -0.0125059 -0.0150468 
255 1 57.8221 28.023 2.1654 -0.00355311 0.0156965 0.0297709 
256 1 57.6945 26.8269 4.59675 -0.0104188 0.0034725 0.00933574 
254 1 57.6587 28.3719 4.70041 0.0243874 -0.0174642 -0.011857 
253 1 57.522 28.932 3.21208 0.0189682 0.00624553 0.0147617 
261 1 57.9743 28.4989 0.799766 0.00405745 -0.00158633 -0.0200143 
276 1 58.6032 23.4492 2.41864 -0.035712 -0.00276811 0.0185489 
274 1 59.3366 24.4366 1.44629 -0.0247412 0.000802174 0.0230902 
284 2 57.332 23.6371 6.70756 -0.0160486 0.0388111 0.0129784 
277 2 55.6179 31.6209 4.57885 -0.0848993 0.00311952 -0.0919806 
278 2 56.7421 31.6236 1.51639 -0.068454 0.0282871 0.0130202 
269 1 57.2294 29.7357 0.580652 0.0256839 -0.00623167 0.00874189 
266 1 57.1108 30.5717 1.76697 0.0213464 -0.00561548 -0.012193 
265 1 56.6085 31.1148 4.47545 0.0057871 -0.0265481 0.0220095 
259 1 57.0169 30.3857 3.23028 0.0100328 -0.0142868 -0.0156692 
267 1 56.7858 30.5739 5.75511 -0.0241805 -0.00794051 -0.01273 
464 2 38.6071 26.8333 5.53371 -0.0372306 -0.00802724 -0.0503067 
271 1 57.7366 26.8754 6.85846 0.0179329 -0.0161236 0.014636 
280 2 57.264 28.3409 8.05397 0.00966346 -0.0187138 0.0272226 
268 1 57.7278 28.3432 7.07732 0.000565898 -0.0084986 -0.0265895 
285 2 59.0842 25.6496 -0.651937 -0.0336359 -0.0568551 0.0118189 
349 2 52.2039 34.5184 -11.4376 -0.013161 -0.0216581 -0.0857005 
72 2 49.429 12.9211 -10.6293 0.0777031 -0.0601127 0.0292323 
560 1 37.0107 12.0474 -8.38054 0.0179908 -0.00324848 -0.0277932 
530 2 57.0841 29.588 24.309 -0.0413073 0.0845365 -0.0127446 
216 2 58.954 33.9692 31.7267 0.0193903 0.0894338 -0.0702837 
531 2 57.1608 25.1423 25.7254 0.00468169 -0.0490538 -0.0557668 
529 2 57.3849 26.9031 24.4042 0.0511191 0.00879827 0.075024 
532 2 57.8546 24.304 27.5745 0.0410024 0.0472639 -0.0854912 
519 1 57.4855 25.9483 26.3785 0.00591432 -0.0208177 0.00524191 
520 1 58.8096 24.782 27.9391 0.00902086 0.0306025 0.0139535 
523 1 59.9924 24.6753 28.8815 0.00764341 0.00918322 0.0287724 
512 1 58.8154 25.8377 27.1664 -0.0127542 -0.0236687 -0.0010588 
345 1 57.8763 34.17 32.3243 -0.0027401 0.0101811 0.00358632 
342 1 57.3288 33.1185 33.3455 -0.00800015 -0.0275928 -0.0180646 
511 1 57.8096 28.3449 26.0519 0.0176528 0.000735831 0.0221055 
505 1 59.0372 28.4076 26.9803 0.00223655 0.000101315 0.0127996 
338 1 53.6694 32.7338 34.7504 -0.00957623 -0.0142052 0.00696578 
507 1 59.7336 29.5791 27.4349 -0.00511341 -0.000947222 7.43513e-05 