ITEM: TIMESTEP
150000
ITEM: NUMBER OF ATOMS
576
ITEM: BOX BOUNDS pp pp pp
-1.2000000000000000e+01 8.4000000000000000e+01
-1.2000000000000000e+01 3.6000000000000000e+01
-1.2000000000000000e+01 3.6000000000000000e+01
ITEM: ATOMS id type x y z vx vy vz 
274 1 8.77826 8.46802 -4.43088 -0.00444505 -0.0376189 0.0192688 
286 2 8.70078 7.901 -3.49014 -0.0223135 -0.0493866 0.0188932 
45 1 9.64248 2.21128 -0.839836 -0.0133789 -0.0162229 -0.0201207 
65 2 8.01005 2.19755 -2.08837 -0.102832 -0.0544007 -0.0700537 
53 1 9.07932 2.63732 -1.99084 -0.0109631 0.000569097 -0.00754244 
37 1 11.3732 3.75946 -1.14033 -0.0090476 -0.020043 -0.00177643 
50 1 9.65164 3.46909 -2.99979 0.0258576 -0.00737638 0.0137573 
62 2 9.05522 3.07728 -3.87948 0.0279453 0.0146298 0.0655942 
43 1 10.9694 3.91586 -2.61526 -0.011187 -0.010498 -0.008337 
39 1 10.7726 2.76348 -0.360802 -0.022344 0.00156669 -0.01848 
49 1 11.5069 4.59381 -3.66831 -0.0106158 -0.0208655 0.0105762 
61 2 11.062 4.08078 -4.76774 0.0453391 -0.0601644 -0.000147799 
270 1 5.64591 10.8363 -5.15819 -0.0275405 0.00308741 0.00439652 
282 2 4.7064 10.51 -5.42984 -0.0507124 0.00489335 -0.0987617 
257 1 8.45815 11.2798 -4.74901 0.0324783 0.00709678 0.0215794 
258 1 9.70895 11.0083 -5.28188 -0.0272483 -0.0101349 -0.0219137 
264 1 10.7268 9.68187 -5.11084 0.0129261 -0.0202022 0.029408 
285 2 6.28928 8.89135 -5.68916 0.0274714 -0.0328442 -0.035508 
273 1 6.47013 9.68297 -5.07661 0.00542095 -0.00805586 -0.00716552 
263 1 8.08363 9.72275 -4.89413 0.0104897 0.0141745 0.0134056 
276 1 10.1351 8.51374 -5.09506 0.00190307 -0.011486 0.0324293 
288 2 10.7382 7.53617 -4.98274 0.0414349 0.0264966 -0.0261962 
69 2 9.62687 0.528754 1.83398 0.00543168 0.0667069 0.033199 
66 2 8.14151 0.9717 -0.312204 -0.0263978 -0.0400093 -0.0845875 
54 1 9.15271 1.30454 0.0413254 0.0186943 -0.0346216 -0.00572572 
58 1 10.9864 2.30065 3.39209 0.011752 0.00339404 -0.00397484 
57 1 9.87305 1.17343 1.25137 0.00982814 0.0216726 0.00643977 
41 1 11.22 2.74173 0.889791 0.0159322 0.00784388 0.00615764 
70 2 10.3623 1.94349 4.10301 0.047619 0.190073 0.0445223 
47 1 10.899 1.74393 1.84144 0.0108841 0.0406455 0.0221501 
60 1 11.9765 3.20622 3.81355 0.0262356 -0.0228052 -0.0236025 
34 2 8.73662 11.8141 17.331 0.00677689 -0.00910635 0.0929204 
278 2 5.89567 15.7209 -6.32221 -0.00932593 0.00535445 -0.0343074 
281 2 4.42739 13.3179 -5.82434 -0.0400322 0.0741642 -0.0132957 
269 1 5.46238 13.4063 -5.99559 -0.0122516 -0.0120057 0.0387506 
259 1 7.60484 14.4691 -6.49563 -0.00821279 0.039338 0.0125179 
265 1 8.18918 15.7279 -7.14028 -0.00594352 0.0108328 0.00456438 
253 1 8.21714 13.4058 -5.86176 -0.00761681 -0.0112419 0.0293883 
254 1 9.68825 13.3905 -5.73479 -0.00775799 0.00227197 -0.00469738 
267 1 9.53646 15.4775 -7.39505 -0.00502531 0.00114135 0.0104852 
266 1 6.15864 14.5762 -6.10789 0.00105404 0.0259992 0.00880489 
277 2 7.74223 16.5573 -7.7982 -0.0315145 0.0753851 0.0198636 
260 1 10.3169 14.5429 -6.50043 -0.00176932 -0.00388063 0.0151859 
279 2 9.95599 15.9009 -8.0957 -0.0219183 0.0569816 -0.0396218 
125 1 10.9051 32.7282 10.9499 -0.0383148 -0.0311802 0.0196517 
256 1 10.5254 12.3241 -5.30239 -0.0221574 0.035065 0.015656 
130 1 6.18446 30.1935 9.87644 -0.00293423 0.00130726 0.0225186 
255 1 7.44656 12.4298 -4.77687 -0.0146118 0.00149284 -0.0301145 
261 1 6.19257 12.1783 -5.43603 -0.0208967 -0.0144597 0.000806227 
576 2 7.80345 15.3616 1.40533 0.0412654 0.00666279 -0.0154474 
563 1 9.89392 14.0392 -0.259039 -0.0102813 0.0314861 0.0224821 
560 1 10.9992 13.5705 -1.02276 0.0157482 0.00206706 0.0150128 
575 2 9.06824 13.5761 -0.0517167 0.00507606 0.0184199 0.0706867 
552 1 10.0262 15.3927 0.325776 -0.00496654 -0.00954995 0.0186013 
572 2 11.2097 12.9161 -1.87401 0.0131149 -0.0178671 0.015767 
574 2 8.59677 16.886 2.90566 -0.033156 -0.00784655 0.0942525 
564 1 8.91904 15.702 1.18558 -0.00466099 0.0225099 0.032718 
551 1 10.3129 17.6385 2.15741 0.0167624 -0.0303361 0.0198966 
545 1 11.4463 16.9208 1.57804 -0.010016 -0.00704535 -0.00868947 
562 1 9.06643 16.9898 1.91894 0.00728178 0.0126911 -0.0225104 
546 1 11.4191 15.8819 0.801607 -0.0478363 0.00986568 -0.0370559 
561 1 10.8506 18.3783 3.34798 -0.0045469 -0.00266723 0.0246653 
573 2 10.3689 18.0624 4.2956 0.000790128 0.0236166 0.0558126 
262 1 11.8517 12.5729 -5.9407 0.0263719 -0.0209 0.0149828 
137 2 11.3228 33.6727 10.9573 0.00663522 -0.0145063 0.134052 
144 2 5.93206 27.928 9.49485 0.00214779 -0.0885375 -0.0131403 
280 2 11.2493 14.5967 -8.51507 -0.0388415 -0.0439313 -0.0124174 
132 1 6.11385 28.777 10.1867 -0.0212705 -0.0046584 0.000129168 
120 1 6.32908 28.4532 11.6581 0.021103 -0.00601285 -0.00302677 
114 1 7.49527 29.2456 11.9797 -0.00115179 -0.0515966 0.00542818 
143 2 5.19249 26.2469 11.9519 -0.0181363 0.0175993 0.0375865 
119 1 7.32325 31.0235 10.1572 -0.00632173 0.0119821 -0.00850662 
111 1 9.3454 30.7323 11.1313 0.0128401 -0.00865707 -0.00296174 
141 2 7.62347 32.7175 8.35699 0.0419911 0.0209613 -0.07144 
117 1 9.96419 31.8441 10.2914 0.00105293 -0.00175408 0.00648701 
142 2 5.53155 31.0776 9.08106 -0.0141977 0.000332816 0.0488284 
126 1 9.20882 32.3983 9.35711 -0.0189186 -0.00698991 0.0164608 
129 1 7.83646 32.0662 9.23191 -0.00943084 0.0085937 0.00355091 
138 2 9.76361 33.3112 8.81111 0.0529251 0.00836266 0.00155705 
113 1 8.19399 30.0862 10.9944 -0.0127693 0.0167085 0.0120627 
268 1 11.1732 14.1019 -7.57366 0.0200339 -0.00946623 -0.0105319 
30 2 4.12388 13.7597 18.6253 -0.000877807 -0.0295293 0.025632 
33 2 5.85737 13.0737 17.0026 0.0248284 -0.0611022 0.0191215 
31 2 11.9645 17.3984 22.6883 0.0277773 -0.0190096 0.124727 
139 2 8.362 26.2599 15.8933 -0.00352311 -0.0421533 -0.0456265 
127 1 8.75342 27.1238 14.9844 -0.00264872 -0.0189039 0.00066213 
140 2 6.83856 25.6727 13.1454 -0.0827743 -0.00760413 0.0316325 
136 2 10.496 27.3856 15.9627 -0.0406429 -0.0368787 0.0148196 
118 1 7.91847 27.6791 13.8687 -0.00364033 -0.0120236 0.00806819 
128 1 7.08408 26.7243 13.2439 -0.0163912 0.00255432 -0.00450049 
124 1 9.97994 27.8127 15.1927 0.0029752 0.000546023 0.00306243 
116 1 10.2569 29.0321 14.428 0.0206596 0.0107277 0.0344202 
112 1 8.54903 28.5179 12.7631 0.0111761 -0.0159239 0.0154668 
109 1 9.75976 30.7171 12.5544 -0.00706593 0.0120335 -0.017454 
110 1 9.30617 29.5312 13.3217 0.024751 -0.000211511 -0.00621356 
18 1 5.09553 14.2065 18.4175 0.0192615 -0.0029599 -0.00844694 
21 1 6.29031 13.6034 17.862 0.019304 0.010805 0.0234636 
9 1 5.53388 15.3378 19.1082 -0.00712062 0.00545421 -0.0351337 
3 1 7.01606 15.3308 19.6927 0.0188662 -0.0059078 -0.00247063 
29 2 3.38091 15.421 19.4898 0.0304754 -0.0258981 0.00214245 
17 1 4.41367 15.878 19.737 0.00173215 -0.0279594 -0.00421383 
11 1 7.68581 13.6917 18.3203 0.00947085 -0.0342272 -0.00598404 
1 1 7.22138 16.4641 20.4539 0.0393805 0.0120222 0.00590131 
22 1 8.86436 12.6026 18.0687 -0.00986497 0.0233634 -0.00609852 
5 1 8.0518 14.4918 19.4382 0.00197584 -0.00414523 -0.0259411 
24 1 10.1233 12.6046 18.7695 -0.00421955 -0.0294949 -0.0117991 
6 1 9.35645 14.6293 20.1919 0.00931882 -0.0115994 -0.0227949 
4 1 9.53078 15.9839 20.8229 0.00404929 0.000942811 0.0043414 
36 2 10.7962 12.3118 17.8573 0.0955698 0.0135092 -0.0586851 
12 1 10.2521 13.6299 20.2509 0.0218276 -0.00504887 0.00876049 
10 1 10.6983 16.1956 21.6698 -0.0108147 -0.00863722 -0.0296307 
23 1 11.2952 13.5661 21.3532 0.000935567 -0.0115056 0.019848 
115 1 10.9923 31.2266 12.9848 -0.0108819 0.00844298 0.0218301 
20 1 11.1656 14.774 22.2022 0.0119963 -0.0219611 -0.0196108 
2 1 8.59349 16.8425 20.6248 0.0288733 0.0377038 -0.0244705 
19 1 11.1045 17.4868 22.045 -0.00577893 0.0193 2.87567e-05 
26 2 4.6406 18.4099 20.2282 0.0828409 -0.0227364 -0.0557355 
14 1 4.93345 17.1706 20.2285 0.0306657 0.000460394 0.00332798 
7 1 6.33065 17.5667 20.3803 -0.00397455 -0.00546483 0.010097 
25 2 5.83951 19.3634 21.1604 -0.0552631 -0.0237116 -0.0170911 
131 1 6.05003 27.0532 12.1369 -0.0194559 -0.010831 -0.00235126 
13 1 6.7354 18.891 20.9467 0.0118334 -0.0377305 -0.00243237 
15 1 7.99928 19.3169 21.3271 0.00808023 -0.0172906 0.00399839 
27 2 8.48237 20.3004 21.7207 -0.016513 0.106987 0.066867 
8 1 8.81555 18.13 21.3136 0.0295812 -0.00750438 0.0181267 
16 1 10.2481 18.4859 21.5206 -0.00691649 0.00224476 -0.0228202 
28 2 10.5618 19.6262 21.8246 0.0390054 0.00124383 -0.0173603 
32 2 11.4005 15.0253 23.2767 0.18499 -0.00823586 0.0591967 
123 1 11.4051 29.6798 14.7856 -0.0154797 0.0124571 0.0237052 
121 1 11.7548 30.7528 14.077 0.0254632 -0.0215442 0.0156179 
35 2 10.769 12.236 21.0785 -0.00934421 0.0246856 0.054922 
135 2 11.8026 29.1204 15.7237 0.00646538 -0.0564028 -0.0174308 
122 1 11.6958 32.195 12.0583 -0.0327625 -0.0171718 0.0103664 
540 2 35.3192 -1.06701 -11.5033 -0.0288694 0.0408401 0.0197003 
538 2 32.9174 -0.972644 -11.2157 -0.0906178 0.0744547 0.0183636 
500 2 34.423 0.290678 8.19569 0.0160584 0.0501428 -0.032222 
38 1 12.7188 4.20669 -0.992838 -0.00215513 -0.0121551 0.00175992 
44 1 13.3426 4.98868 -2.02261 0.000265622 0.00126098 6.81684e-05 
64 2 14.6149 6.53834 -2.24952 0.0250881 -0.0540619 -0.0484188 
284 2 13.6268 11.5353 -6.29305 -0.0886628 0.0175702 -0.0400866 
272 1 12.4927 11.2586 -6.09145 0.018058 0.00651083 -0.0142393 
275 1 12.0096 9.90954 -5.86154 0.00276027 0.00145081 -0.0129979 
51 1 12.7341 5.34786 -3.48612 -0.00777202 -0.0185495 0.00384849 
63 2 13.2084 6.40811 -3.96929 -0.0152554 0.0375968 -0.0368667 
287 2 12.5625 8.99907 -5.56936 -0.0279554 -0.0294239 -0.00236197 
52 1 14.4937 5.73827 -1.45426 0.00105958 -0.000867117 -0.00704903 
487 1 34.4211 2.51016 10.3121 -0.00055648 0.000360736 0.0174738 
488 1 35.2395 0.932479 8.63162 -0.00147984 -0.00594158 -0.00146286 
48 1 12.5876 4.13266 2.72802 -0.0278184 -0.000236487 0.0138251 
68 2 15.1821 6.0141 2.67002 0.0550045 0.00674354 -0.000581781 
56 1 14.3649 5.49118 2.11922 -0.00387723 -0.00116975 -0.0199273 
46 1 13.6656 5.25365 0.784765 0.00808369 0.00778107 -0.000360448 
40 1 13.1931 3.96794 0.275775 0.0153809 -0.0131476 -0.0263593 
59 1 13.6629 4.90065 3.21241 -0.0291077 -0.0103985 0.00280038 
42 1 12.174 3.79147 1.31769 -0.00201172 -0.00874813 -0.000885283 
55 1 14.5907 6.04319 -0.0196465 -0.00941652 0.0169913 0.00724562 
67 2 15.455 6.80223 0.38584 0.00401568 0.0131988 0.0224039 
353 2 31.3517 -5.29035 9.07941 0.123781 -0.00026508 -0.0619399 
348 1 26.2218 -1.03738 10.5297 -0.00972115 -0.0135641 0.00469881 
357 2 27.5724 -3.86608 7.48696 0.155178 -0.0636013 -0.0706955 
345 1 27.9214 -3.74961 8.5371 -0.00492033 -0.00244071 -0.0088873 
346 1 26.6663 -1.67809 9.3293 0.0185513 -0.00905581 -0.01577 
358 2 26.2744 -1.39925 8.37865 -0.00466187 -0.0301793 0.065754 
335 1 27.6843 -2.64453 9.31385 -0.0294028 0.00748703 -0.00741414 
329 1 28.3308 -2.70947 10.764 -0.00488058 0.0220745 0.00993735 
327 1 29.4128 -3.58451 11.0906 -0.0233174 -0.0153531 0.0195725 
354 2 29.3748 -5.09175 8.09501 -0.0203763 -0.0615795 -0.0077008 
342 1 29.1936 -4.19359 8.77692 0.00393421 0.0161547 -0.0117033 
336 1 26.9899 -0.903399 11.7 0.00649202 -0.00933913 -0.0124785 
330 1 28.2878 -1.70698 11.6605 -0.0167045 0.0152093 -0.0060169 
528 1 34.8108 -0.308031 -11.898 -0.00988554 -0.0101597 -0.0282207 
333 1 29.7796 -4.60092 10.0051 -0.00819626 -0.0135197 0.0250964 
341 1 31.1076 -5.02895 10.0724 -0.00647152 0.00484794 0.00523209 
350 2 32.8301 -6.21122 11.2954 -0.0285579 -0.0110998 0.12778 
338 1 31.7941 -5.87506 11.1489 -0.00212864 -0.00263346 0.0149361 
484 1 34.5635 3.22231 11.5518 -0.00833566 -0.0135036 -0.0074042 
491 1 35.878 -0.413882 8.78569 0.00283352 0.0106666 0.00478248 
526 1 33.4148 -0.424 -11.892 -0.0324356 -0.00159943 -0.00605023 
360 2 25.5077 -0.163991 10.0351 -0.0378457 0.0316678 -0.0167523 
499 2 33.5473 2.62974 9.90573 0.00231397 -0.00489455 0.0382061 
478 1 35.3773 1.68693 9.81607 -0.00607446 -0.0065127 0.00698748 
72 2 12.5936 2.83362 4.39986 -0.031952 -0.130352 -0.0157972 
537 2 30.8561 -1.16791 -11.7529 -0.0180159 -0.0634255 0.0200575 
505 1 32.4526 1.36994 31.5069 -0.0205701 0.00126718 0.0115271 
344 1 28.088 0.0366122 13.8479 -0.0222745 0.015147 0.00408803 
334 1 28.2361 -1.48601 14.2469 0.005767 0.0149922 -0.00124525 
328 1 28.7643 -2.08588 12.9954 0.0101921 -0.0176341 0.0211218 
356 2 28.4911 0.891656 14.3514 -0.0450963 -0.0754956 0.000654664 
332 1 30.3098 -3.16912 14.5061 -0.0102453 -0.000881865 0.0205262 
343 1 28.0762 -2.1666 15.5062 0.0222189 -0.0314964 -0.00804773 
340 1 29.4799 -2.40463 15.5326 0.00435606 0.00538716 -0.0259977 
352 2 29.8709 -2.81602 16.6607 0.0111058 -0.0629739 0.0207848 
339 1 31.2336 -4.18491 14.661 -0.0197014 -0.0133086 0.00697537 
351 2 31.5474 -4.4265 15.5437 -0.0737766 -0.0193881 0.0145301 
326 1 29.8162 -3.1468 13.1669 -0.0146241 -0.0152963 -0.00268918 
355 2 27.2792 -2.65086 16.2898 0.039415 -0.0399465 0.0799909 
337 1 31.463 -5.31911 13.8025 -0.009331 0.0169933 -0.0161774 
349 2 32.1246 -6.13078 13.9359 -0.00208041 -0.0520203 0.0714492 
347 1 27.6789 0.133517 12.5083 0.000797615 0.0105928 -0.0123407 
359 2 28.1668 0.913486 12.0265 0.00700728 -0.0501288 -0.0197919 
514 1 35.2664 2.63415 33.6483 -0.0160954 -0.00481185 0.00376629 
331 1 31.119 -5.17923 12.1822 -0.0266272 -0.012749 0.0297356 
391 2 35.8837 -7.35466 24.7143 0.0520734 -0.0139438 -0.0352514 
385 2 31.8213 -9.88427 29.6783 0.0764622 0.0540315 -0.0486299 
387 2 32.5741 -10.0664 26.8568 0.0222417 -0.087428 0.0827078 
388 2 33.9689 -9.22223 25.375 0.0233944 0.010518 -0.0245006 
376 1 34.398 -8.48304 26.1397 0.000497623 -0.0262389 -0.0340919 
379 1 35.2458 -7.42503 25.6614 0.00608704 0.00529013 0.001949 
384 1 35.6465 -2.56856 28.8822 -0.0137737 0.00408789 -0.0348675 
370 1 35.4771 -6.30097 26.4691 0.00380561 -0.0231972 0.00206545 
364 1 34.6814 -5.85459 27.6891 -0.0014107 -0.00178298 -0.0219338 
362 1 33.6108 -6.79774 27.8762 0.00901125 -0.0112168 0.0140413 
375 1 32.4978 -9.11363 27.5996 0.0463334 0.00836683 0.00769425 
368 1 33.6411 -8.23966 27.3395 0.00266161 -0.00657825 0.0131081 
373 1 32.0711 -9.02355 29.0489 0.00159602 0.0266021 -0.0206469 
366 1 34.3668 -4.49536 28.3569 -0.0122245 0.0193236 0.00126053 
372 1 35.4786 -3.72783 27.991 -0.0131501 0.0110785 0.014569 
530 2 29.331 1.37087 29.7263 -0.0842623 -0.00842965 0.0243261 
529 2 32.2584 3.5844 28.8428 0.0640075 0.0438571 -0.011983 
531 2 33.5573 4.60884 29.5794 -0.0511714 -0.05248 -0.141733 
517 1 32.2746 2.87101 29.6794 0.0159124 0.00098622 -0.000336705 
386 2 30.1232 -8.08006 31.2289 0.0534366 0.000467014 0.0247721 
389 2 29.4347 -6.39337 31.4322 -0.0246821 0.0891934 -0.0929463 
367 1 32.0205 -7.54104 29.6433 -0.00627947 -0.0104036 -0.01801 
361 1 32.7265 -6.35841 29.0547 -0.0114552 0.0167749 -0.0168134 
374 1 30.8252 -7.5424 30.443 0.0313829 0.013813 -0.0262073 
377 1 30.2924 -6.16087 30.7054 0.00220037 0.00160432 -0.0275367 
533 2 28.5647 1.07437 32.027 -0.1381 -0.113851 0.049327 
534 2 29.2159 -0.754645 33.8359 -0.0090718 0.0614364 -0.025943 
382 1 34.9285 -2.16399 29.9545 -0.00862875 0.0108428 0.00500325 
363 1 32.8342 -5.29098 29.9241 0.00370054 -0.00294195 -0.0138291 
369 1 31.4323 -5.17065 30.7859 0.00243982 -0.012281 -0.00997568 
378 1 32.0343 -4.00148 31.5325 -0.0403399 -0.00476787 -0.0199811 
390 2 32.1312 -4.32781 32.6488 0.0136423 -0.00634009 -0.00984245 
393 2 32.8861 -1.80697 31.5373 0.0951168 -0.0534519 -0.0131275 
371 1 33.7748 -2.91614 30.1738 0.000735613 0.0355535 -0.0282408 
365 1 33.7039 -4.24952 29.39 -0.0202614 0.0288351 0.00248428 
381 1 32.7058 -2.78512 31.0943 -0.000349564 -0.00182551 -0.0313154 
476 1 35.8359 2.76565 12.2217 -0.0005862 0.0173485 -0.0169826 
522 1 30.1545 -0.430972 34.1642 -0.0214411 0.0342864 -0.0183861 
525 1 31.0369 -0.711389 35.283 0.0209289 0.00208858 0.0296417 
513 1 30.5742 0.292504 32.8033 0.021914 0.017455 0.0201769 
515 1 32.4441 -0.0193221 35.1251 -0.000651355 -0.0135965 0.014704 
394 2 35.381 -1.17792 30.3536 0.0484646 -0.0297977 -0.154684 
521 1 29.6657 0.829253 31.8876 -0.00870777 -0.000745739 -0.0155965 
511 1 31.4809 1.81167 30.4166 0.00319294 -0.0122245 0.0181149 
532 2 34.336 5.51387 31.8098 0.0386177 -0.0653148 -0.067189 
509 1 32.8384 0.0805544 33.7944 -0.00551612 -0.00126553 0.0111021 
516 1 35.3594 0.321663 34.7234 0.00549849 -0.0125714 0.00252334 
508 1 34.3554 1.7095 33.2287 0.00959028 -0.0287061 -0.0242347 
518 1 30.0208 1.45931 30.604 0.00424304 -0.00820967 -0.0165639 
507 1 31.9595 0.440373 32.6515 0.0109257 0.00597593 0.00550097 
519 1 33.2672 3.85407 30.2491 -0.00370332 -0.00562414 0.0104717 
510 1 34.3406 0.245179 33.7579 0.016898 0.00285524 -0.0250337 
506 1 33.7369 1.95536 31.9049 0.00167008 -0.00713548 -0.0072375 
520 1 34.2653 4.5943 32.1613 0.00735263 -0.0165558 0.0202353 
523 1 35.1256 3.99746 33.0111 0.0326656 -0.00756371 -0.0304227 
512 1 33.7629 3.34342 31.5304 -0.00683925 0.0173777 0.0294731 
325 1 30.2522 -4.00898 12.0917 -0.0297723 -0.00768607 0.00156956 
496 2 33.8417 3.14095 12.5069 -0.035498 0.0492485 0.112339 
535 2 35.7603 4.57913 33.8335 -0.0821338 0.0339517 0.0223577 
271 1 12.1587 13.1833 -7.25659 0.00449884 0.000871944 -0.0142299 
283 2 12.9982 12.6376 -7.5819 0.0492901 0.0212241 -0.067246 
571 2 12.9731 12.5686 -1.75463 -0.0130632 0.069845 -0.0557569 
249 2 33.5171 23.8282 -6.81361 -0.0153434 0.128888 -0.0307664 
246 2 35.6585 24.6143 -6.6079 0.00226986 -0.0412294 0.0393176 
559 1 13.3491 13.5384 -1.46998 -0.00493451 0.0159072 -0.0130292 
550 1 12.2222 14.2538 -0.916166 -0.014054 0.0171997 0.00352045 
567 2 16.1893 15.7927 -1.35129 -0.106467 0.054773 0.02512 
555 1 15.4362 15.9866 -0.686351 -0.0033485 0.00832653 0.00402495 
556 1 14.4552 14.3777 -1.6409 0.000329332 0.0118728 -0.0285154 
544 1 12.4228 15.0718 0.349592 0.00627413 0.0185373 -0.0294324 
231 1 33.6687 27.7106 -0.352339 0.0145924 0.00520009 -0.0200867 
252 2 32.0817 20.5258 -3.27943 0.0165785 -0.0454425 0.0702873 
240 1 32.9524 21.0918 -3.32287 0.00517761 0.0336581 0.000339667 
222 1 33.9614 23.0538 -2.25033 0.00108086 0.0237605 0.0160359 
220 1 33.6139 24.0093 -1.32447 0.0127919 0.00147671 -0.0219517 
228 1 33.506 21.6751 -2.01302 0.00253548 0.00236662 0.00506681 
238 1 33.1937 21.709 -4.5716 0.00973497 -0.0120923 -0.00022661 
221 1 34.1555 23.4955 -3.48213 0.0124435 -0.0199353 -0.0159372 
227 1 33.4333 23.2216 -4.55697 0.00169038 0.009114 -0.0212626 
239 1 33.2617 21.5324 -0.707119 -0.0184762 0.00615926 -0.0317306 
236 1 33.9415 22.3162 0.379867 -0.00154343 0.0108343 0.0304374 
251 2 32.7659 20.6591 -0.286668 0.0482021 0.0711754 0.0169702 
237 1 33.7824 24.0754 -5.75073 -0.0191821 0.00980485 -0.0139088 
250 2 33.9593 21.1601 -5.45194 -0.0729736 -0.00679801 -0.0142402 
218 1 33.6918 25.438 -1.44933 -0.00117058 0.0169005 0.0333845 
217 1 34.1571 25.7388 -2.58387 0.00750125 -0.0130186 0.0135292 
219 1 34.8606 24.796 -3.39454 0.000426366 -0.0133683 0.0116884 
225 1 35.5617 25.5474 -4.46186 -0.0254519 -0.031523 -0.0239409 
234 1 35.1303 24.6188 -5.47329 0.0265332 -0.0204567 0.0361324 
243 2 32.6596 28.1933 -0.370184 0.00811907 0.0273458 -0.115962 
224 1 33.5939 26.2982 -0.0131344 0.00362362 0.0055468 0.0164566 
570 2 12.7088 19.6806 3.92627 -0.0680762 0.00259786 0.139888 
223 1 35.0293 27.1648 -2.41846 0.00507839 0.0191685 -0.00141 
244 2 32.5952 26.3781 2.10689 -0.0257329 0.0728878 0.0223224 
229 1 34.8267 27.9788 -1.31402 -0.00214715 0.00551227 -0.0105855 
241 2 34.7674 29.0578 -1.32328 -0.0641947 0.0340875 -0.0425314 
543 1 12.7246 17.6982 1.44185 -0.00439144 0.00505649 -0.00413302 
568 2 15.5389 13.9703 -1.76569 0.0200957 0.0372483 0.0489036 
542 1 13.42 15.8521 0.313917 0.0182697 0.0072373 -0.00475972 
547 1 14.9236 17.6189 1.1026 0.0336397 -0.0226888 0.00825075 
553 1 15.8536 16.9963 0.351178 -0.00777249 0.0326933 -0.00862591 
565 2 16.8585 17.2045 0.911718 -0.0153468 0.0510604 0.041421 
548 1 14.1507 15.5185 -0.810092 -0.0015107 -0.0232643 -0.0018225 
541 1 13.6434 17.0703 0.82876 0.0199658 -0.0125661 -0.00707965 
549 1 13.2128 18.4849 2.4746 0.0194125 -0.00663842 0.0128893 
554 1 15.3851 18.4763 2.09858 0.0300036 -0.0220053 -0.0114494 
566 2 16.5461 18.7065 1.89279 0.0115345 0.0365488 0.0642033 
557 1 14.4456 19.2403 2.81731 0.0076329 0.021222 0.0128417 
569 2 14.8794 19.9704 3.78674 0.0443335 -0.0073296 -0.0758312 
226 1 33.6511 23.6912 0.14399 -0.0177507 -0.000505033 -0.013019 
248 2 33.9777 21.7888 1.37462 -0.0189812 -0.0400855 -0.0306761 
247 2 34.0817 24.1218 2.25471 -0.0152917 -0.0718708 0.0597054 
235 1 33.62 24.5564 1.46548 -0.00214538 0.00720027 0.00180067 
232 1 33.0693 25.784 1.21413 0.00890319 0.0225649 0.0100349 
558 1 12.2662 18.9302 3.29396 -0.0104476 -0.00314805 -0.00521592 
134 2 12.4595 32.9913 12.5253 -0.0489983 0.0556515 -0.020687 
71 2 35.8867 30.6178 17.2181 0.00335589 -0.0977955 0.0406618 
133 2 12.8008 31.2117 14.5353 0.00827843 0.0711464 0.0275317 
209 2 38.1992 0.771841 -8.88608 -0.0639529 0.0469222 -0.0522021 
197 1 39.1886 0.777877 -8.63182 -0.0331208 0.00191762 -0.0260672 
189 1 39.8107 0.0156312 -7.48143 -0.00879962 0.00561399 -0.0223099 
210 2 38.606 -1.43721 -7.58112 0.0121464 0.0456581 0.000948128 
198 1 39.4343 -1.19589 -7.02896 -0.0118279 -0.0097052 0.00191054 
183 1 41.0635 0.590796 -7.087 -0.0148303 -0.00526894 -0.0011211 
194 1 39.9275 1.65061 -9.53458 0.00943945 -0.00569338 -0.00493626 
206 2 39.9429 1.74796 -10.6664 -0.0232054 0.0376645 0.0406715 
187 1 40.9482 2.2752 -8.88813 0.00260377 0.00567809 -0.00223785 
193 1 41.552 3.51188 -9.26777 -0.00713677 0.0105114 -0.0132716 
205 2 41.1138 3.86017 -10.3177 0.0385573 0.10025 0.0122882 
181 1 41.3624 1.86213 -7.47816 -0.00167261 0.00705544 0.0133738 
472 1 36.5065 1.26425 10.856 -0.0113022 0.021143 -0.0271409 
195 1 42.0129 4.19206 -8.3851 -0.0039522 0.0105861 0.0363636 
207 2 42.2227 5.21902 -8.66657 0.0721417 0.0560025 -0.0964725 
208 2 42.5558 5.70514 -5.38759 0.0111542 -0.100317 -0.07298 
188 1 42.4406 3.7524 -7.1147 0.0109029 0.00726822 -0.0196433 
196 1 42.8574 4.80146 -6.01628 0.0393239 -0.0136185 -0.0147419 
182 1 42.6095 2.37263 -7.07341 0.0163352 0.0116672 0.0210113 
213 2 39.5971 -2.57627 -5.0026 -0.049782 0.0208985 0.0124236 
201 1 39.9569 -1.66278 -5.72322 -0.0156455 -0.0125505 0.0195844 
185 1 41.8462 0.00777057 -6.0821 0.0239042 -0.000799104 -0.0183625 
191 1 41.2607 -1.0705 -5.52132 -0.000313305 0.00979347 -0.0101594 
214 2 40.9244 -2.22522 -4.25218 -0.0777739 0.0952774 0.0605711 
202 1 41.9539 -1.73939 -4.45443 -0.00425081 0.000430096 -0.00953899 
192 1 43.5825 0.386842 -4.33378 0.0258849 -0.0165888 -0.00578373 
204 1 43.0766 -0.943251 -3.90272 0.00314057 -0.0196987 0.00439783 
216 2 44.1008 -1.51122 -3.51887 -0.0597649 0.0502276 0.0305792 
186 1 42.7875 0.749054 -5.41292 0.0106311 0.0274812 -0.0244676 
215 2 45.5176 0.318567 -4.16634 -0.0260761 -0.00104307 -0.00486399 
203 1 44.8318 1.05035 -4.40316 0.0169262 0.0110999 -0.00223908 
184 1 43.2044 1.75031 -6.03862 0.0098352 0.0183324 -0.024818 
190 1 44.223 2.78409 -5.53448 -0.018079 0.0116049 -0.0223812 
199 1 44.0319 4.2945 -5.36865 -0.00734947 0.0189714 0.00233651 
211 2 45.0428 4.29669 -4.92528 0.0147222 0.0444835 0.00288344 
200 1 45.4309 2.19226 -5.03291 -0.0293199 0.000773494 0.000122357 
212 2 46.538 2.65994 -4.6835 -0.0427218 0.138045 -0.0485861 
480 1 36.5828 -0.908463 9.95612 0.00626384 -0.00473971 -0.00720528 
504 2 36.8436 -3.29787 10.2678 0.0517616 -0.0688224 -0.125247 
490 1 38.5646 -2.45911 10.3683 -0.0284176 -0.0112061 0.0253808 
492 1 37.2683 -2.19928 10.0789 0.0134277 0.00620998 0.0154656 
502 2 39.1768 -3.35661 10.2399 0.0579066 -0.0464512 0.00746877 
474 1 37.3809 0.0773108 10.6171 -0.0199517 0.00832218 -0.0134517 
501 2 40.8553 -2.66956 11.4296 0.00306427 0.0796157 -0.0589322 
489 1 40.5863 -1.56381 11.1914 0.0241476 -0.0149472 0.00592018 
479 1 39.1938 -1.29202 10.7575 0.0158917 0.0468965 0.0136273 
473 1 38.7472 0.106669 11.0147 3.67926e-05 0.0313302 -0.0243379 
503 2 36.3578 -1.01839 7.91484 -0.04208 0.081761 -0.0392287 
539 2 37.5907 0.672023 34.8264 0.0239434 -0.0739064 -0.042396 
486 1 41.3082 -0.765654 12.218 -0.0153629 -0.0334647 -0.0190544 
498 2 42.403 -0.795069 12.7532 -0.0248533 0.0134503 0.0048758 
100 2 37.9803 1.66555 18.6466 -0.104249 0.0363366 0.0531141 
470 1 36.6163 1.67131 12.1531 0.025727 -0.00180735 0.0127726 
477 1 40.4711 0.285882 12.464 0.00645122 -0.0122249 0.00736048 
485 1 40.8723 1.29748 13.8115 0.0149364 -0.0201533 -0.00722428 
471 1 39.0219 0.43549 12.4122 0.00823426 -0.0190177 -0.0140712 
497 2 41.501 0.632364 14.7072 0.0292602 0.011322 -0.0630452 
482 1 40.0254 2.44494 14.175 0.023315 -0.0284763 0.0240268 
475 1 38.4595 2.47105 13.8051 0.0180698 0.0158971 -0.0285282 
494 2 40.5766 2.66048 15.3658 0.004796 0.017677 -0.0436125 
469 1 37.9828 1.33673 13.0177 0.0122117 0.0119991 -0.0170472 
88 1 39.0687 1.85836 18.6832 0.0205965 0.00272634 -0.00139676 
91 1 39.9601 0.626109 18.8478 0.00961702 -0.0133477 -0.00937429 
103 2 40.3354 -0.412473 18.4362 0.0274619 0.0431869 -0.0852094 
97 2 38.2313 6.02176 19.3019 0.0524659 0.0492282 -0.00319653 
493 2 38.0877 4.68962 14.6818 0.0110949 -0.0722932 0.00464396 
481 1 37.7671 3.87296 13.9704 -0.00574708 0.00512055 -0.0189648 
179 2 46.4033 8.53045 13.8914 0.0144832 0.0328368 0.0140937 
104 2 42.2463 -0.990301 19.3292 0.00718224 0.00111604 0.0431599 
107 2 44.7451 0.251937 19.3434 -0.0947455 0.0461548 0.0126792 
99 2 39.8168 5.33963 17.4364 -0.0705956 0.0118599 0.0294485 
87 1 39.514 4.33417 18.1649 0.00320713 0.0293512 0.0257164 
98 2 38.6988 6.73436 21.442 0.0631065 -0.0654658 0.0721663 
89 1 40.4467 6.34162 22.5709 0.0010095 0.0139174 -0.0195865 
80 1 39.9438 2.97565 18.5142 -0.0276725 0.00191448 0.0157085 
85 1 39.2777 5.41384 19.2535 0.00782869 0.0320151 0.0144554 
81 1 41.4803 5.11189 22.7845 0.00738669 0.00297893 0.0112724 
75 1 41.1983 4.05244 21.8772 -0.0204477 -0.0375105 0.0305752 
79 1 40.1443 5.38469 20.3877 0.0144801 0.0486136 -0.00644338 
86 1 39.6846 6.15772 21.4504 0.00127649 0.00875384 -0.0123462 
73 1 40.7654 4.25124 20.4738 0.0234197 0.00351333 -0.00437607 
74 1 40.7554 3.21941 19.5561 0.00596408 -0.00682518 0.0276927 
76 1 41.5628 2.28707 19.9906 0.0198192 0.0198034 -0.00680272 
90 1 42.1183 4.66228 24.0188 -0.01785 -0.00706144 0.00900474 
82 1 41.2481 0.927747 19.269 -0.0151986 -0.0113101 0.0149567 
77 1 42.5039 3.41684 21.9696 0.0152012 -0.0226658 0.00403268 
83 1 43.2425 2.94435 23.269 0.0226074 0.012407 0.00700146 
78 1 42.5575 2.43671 20.9516 0.0137222 0.00563571 0.0447574 
94 1 44.4753 1.95475 22.8504 0.0187484 -0.0240273 -0.0103361 
106 2 44.9519 1.71542 23.776 0.00168261 -0.0581925 -0.0855611 
96 1 44.7972 2.10738 21.4052 -0.000867024 0.00124314 -0.0015211 
108 2 45.8845 2.1037 21.1911 0.039751 -0.0572032 0.012829 
84 1 43.8643 1.76059 20.4494 -0.0175247 -0.0140481 -0.0166222 
92 1 42.4989 0.166355 19.1245 -0.00102853 0.000428159 0.0138554 
95 1 43.749 0.509425 19.7112 -0.0092768 -0.00326837 0.00668984 
93 1 42.9166 3.56896 24.3755 -0.00872849 0.00318435 0.0254569 
105 2 43.2092 3.36874 25.4489 -0.0347998 -0.0223928 -0.12913 
101 2 40.1967 7.29888 23.0027 0.0820954 -0.144877 -0.0271513 
102 2 41.7414 5.06574 24.962 -0.0301996 -0.0406903 -0.0705003 
380 1 36.165 -5.0913 25.9191 -0.0414072 -0.00932508 -0.00536684 
392 2 36.5289 -4.99438 24.799 0.0108553 0.00627422 -0.0178955 
383 1 36.2308 -4.04678 26.827 0.000790246 0.016913 -0.00146301 
395 2 37.2124 -3.47543 26.8686 -0.0188802 0.0584596 -0.0137616 
396 2 36.3673 -1.98335 28.6587 -0.00526573 -0.0226113 -0.0360307 
483 1 36.5717 3.70298 13.0488 -0.0157967 -0.014921 0.00259457 
524 1 36.5952 2.48436 34.1941 0.0138827 -0.00941429 0.00555505 
536 2 37.4948 3.11163 34.1502 -0.0597628 -0.00766224 0.00711549 
527 1 36.6545 1.03281 34.3467 0.0151341 0.0160555 0.00802573 
495 2 36.8206 4.88236 12.7196 0.0531522 -0.0642603 0.027265 
419 1 53.1797 24.1933 -9.88097 0.00570419 0.019591 0.0214445 
431 2 52.2623 23.6353 -10.1259 0.0489388 0.0280241 -0.0542744 
408 1 54.3705 24.0107 -10.4724 0.0195999 -0.0180557 0.0214508 
398 1 55.8947 27.1307 -11.1975 -0.00712385 -0.0320305 0.0199769 
406 1 53.7805 26.4983 -10.4389 0.00816799 -0.0032691 -0.00959647 
397 1 57.2397 27.0189 -11.6434 0.000111083 -0.01954 -0.013138 
412 1 53.6896 28.105 -11.8078 0.00126895 0.0126674 -0.0132914 
427 2 51.8578 27.6101 -10.4202 0.0280391 -0.00167073 0.0771652 
415 1 52.9277 27.4918 -10.7952 0.0315239 -0.00630504 0.00629683 
428 2 52.2326 25.6329 -9.0766 0.0185577 0.0837055 0.052142 
416 1 53.1679 25.5596 -9.50084 0.0107458 0.000386476 -0.00823529 
242 2 36.6954 28.409 -3.2443 -0.02227 -0.0254077 0.0315445 
402 1 55.4686 24.8532 -10.3004 0.00297616 0.0176211 -0.0353072 
400 1 55.2985 26.4382 -10.3684 -0.0214965 0.0125286 0.00250804 
399 1 57.6987 25.7441 -11.5165 -0.000423547 -0.0263439 0.00514544 
233 1 36.2183 26.716 -4.4045 0.00629069 0.0254232 -0.0190264 
245 2 36.8264 27.0347 -5.10756 0.0581296 -0.0374017 0.0468065 
230 1 36.1649 27.539 -3.28821 -0.00416685 -0.00537304 -0.0139065 
420 1 54.7412 22.8464 -11.4272 -0.0111219 0.0119383 0.0384513 
432 2 53.837 22.309 -11.5588 -0.0341106 0.0628994 -0.0197087 
401 1 56.8003 24.6895 -10.9756 -0.0176008 -0.00398471 0.0232234 
407 1 57.0761 23.43 -11.6828 -0.0225584 0.0281078 0.0124016 
418 1 55.9311 22.5186 -11.8279 -0.0154872 0.00254693 0.0201628 
404 1 55.0046 27.9694 -11.7796 -0.0208497 -0.017877 -0.00504038 
421 2 56.9479 28.4392 33.2138 -0.0798777 0.0412839 -0.0376748 
429 2 59.0615 22.0673 35.3032 -0.135644 0.0966471 0.0553046 
424 2 53.3845 28.8951 35.4168 -0.0621597 0.00708168 -0.0288511 
430 2 55.9564 21.3083 35.7896 -0.0395205 0.0379255 -0.0103525 
417 1 58.3814 23.0882 35.7386 -0.0109251 -0.00386359 0.0245977 
409 1 56.7206 28.1469 34.276 -0.00223175 0.00494615 0.000871549 
413 1 59.5346 26.4785 35.0223 -0.0142718 -0.00440184 0.0167167 
411 1 55.4027 28.7399 34.6765 0.00240704 -0.00236517 0.00134906 
403 1 57.7025 27.9522 35.3686 0.00414977 -0.00601151 0.00180607 
410 1 59.0369 27.7811 34.6064 0.00425425 0.0235356 0.00290233 
423 2 54.122 28.9798 34.0747 -0.033709 -0.0279379 -0.0701571 
414 1 59.3454 24.0297 35.681 -0.0213136 -0.0282152 -0.0132221 
405 1 58.7815 25.3784 35.6501 0.00927871 -0.0032991 0.0177852 
422 2 59.6261 28.6229 34.2644 0.00380178 -0.0909912 0.00416134 
464 2 70.0096 6.72901 -7.44916 -0.0328408 -0.0124113 0.0224629 
467 2 70.9863 9.00731 -6.1905 0.00582002 0.065177 0.00118869 