ITEM: TIMESTEP
360000
ITEM: NUMBER OF ATOMS
576
ITEM: BOX BOUNDS pp pp pp
-1.2000000000000000e+01 8.4000000000000000e+01
-1.2000000000000000e+01 3.6000000000000000e+01
-1.2000000000000000e+01 3.6000000000000000e+01
ITEM: ATOMS id type x y z vx vy vz 
420 1 -1.19596 -11.607 -0.758619 0.00588713 -0.00779176 0.00742693 
418 1 -1.9138 -10.4242 -0.919139 0.00508564 0.00186031 -0.00240974 
430 2 -2.96498 -10.4299 -1.38299 -0.0299782 -0.0244759 -0.052649 
432 2 -1.06622 -9.67954 -0.557739 -0.0417626 -0.0643628 -0.0994939 
417 1 -4.12634 -11.9403 2.20499 0.0142585 0.0124538 0.00589755 
450 1 -10.3179 -4.29163 28.2258 0.00701692 -0.0308156 0.00525506 
462 2 -10.0387 -5.18287 28.621 -0.017667 -0.0637895 -0.0483641 
453 1 -10.1976 -3.78036 26.9661 -0.0101856 -0.0217182 -0.0229209 
443 1 -9.36659 -2.65143 26.7441 0.00757046 0.0144516 -0.0159235 
465 2 -10.1639 -4.63706 26.2708 -0.028889 -0.10219 -0.0515544 
466 2 -9.41686 -2.46253 24.5907 -0.0168227 0.0449697 -0.0266126 
437 1 -9.29415 -1.68058 27.8182 -0.00713158 0.008976 0.0184791 
454 1 -8.90253 -1.95326 25.4234 0.00218056 -0.00489105 -0.0115225 
441 1 -10.0089 -3.60637 29.5348 -0.0131542 -0.00768523 -0.014412 
435 1 -9.32148 -2.22639 29.2493 0.0251918 0.00992405 0.00558078 
456 1 -8.71659 -0.616721 25.202 0.00865146 -0.0218291 0.0102488 
468 2 -8.67672 0.2364 24.4329 -0.039288 -0.0232093 -0.056289 
444 1 -8.61318 0.285089 26.3685 -0.00709957 -0.0155945 -0.0217421 
467 2 -7.74083 1.71063 25.047 -0.00887634 0.0280227 0.0841033 
455 1 -7.60415 1.39754 26.1459 -0.00221614 0.0059914 -0.00467638 
452 1 -8.11628 2.41064 27.0651 0.0290993 0.0118258 0.00209627 
438 1 -8.79657 -0.328831 27.6128 -0.0266866 -0.016622 0.00484225 
464 2 -8.61454 3.23077 26.5639 0.110435 0.0468032 -0.0705531 
442 1 -8.2352 2.06289 28.3918 -0.00128627 -0.00950362 -0.0529369 
436 1 -8.55222 0.482244 28.9117 -0.00947941 0.00848566 -0.0120187 
439 1 -8.22623 -2.38949 31.3829 0.019636 -0.00847662 -0.00432194 
446 1 -8.38367 -3.77675 31.55 0.00453277 -0.0123542 0.0150232 
445 1 -7.25446 -1.34101 32.0993 0.00169657 0.00479115 -0.0153274 
449 1 -9.49301 -4.31593 30.6943 -0.0185451 -0.0138853 0.013109 
457 2 -6.72661 -1.58554 33.0349 0.0570521 -0.0224251 -0.031124 
458 2 -8.09193 -4.36349 32.2344 0.0493081 -0.0178071 0.0345351 
433 1 -8.7744 -1.65476 30.2877 0.00678851 0.0146063 -0.0127098 
461 2 -9.52181 -5.4948 30.6298 0.122873 0.029292 0.00820986 
434 1 -8.50051 -0.112204 29.9362 -0.0173771 -0.00226173 -0.00740638 
459 2 -7.63327 0.58936 33.2218 -0.0247782 -0.0465886 -0.0233013 
447 1 -7.80559 -0.0323886 32.2125 0.00602843 0.00322832 0.0207795 
463 2 -9.07426 4.45683 31.7867 0.0017716 0.0390096 0.0207929 
460 2 -9.96197 1.87031 32.187 -0.0554324 0.0131646 0.00467476 
440 1 -8.18224 0.812148 30.9733 0.00543109 -0.00505917 -0.00823538 
451 1 -8.9012 3.42691 31.6016 0.00174521 0.00436074 0.00998901 
448 1 -9.04689 2.11954 31.6627 0.000153074 -0.00408074 -0.0146068 
108 2 1.13561 7.16724 35.7969 0.0871258 -0.0818041 -0.0424531 
115 1 -6.53799 15.9471 -8.97625 0.0375291 0.0145274 -0.0210621 
111 1 -7.81373 18.0736 -8.7993 0.0379434 0.00417675 0.00231814 
109 1 -7.73638 16.7809 -8.62376 -0.0138669 -0.0119219 -0.0303781 
116 1 -8.76505 14.5764 -7.97731 -0.00221589 0.0186751 0.0312973 
110 1 -8.75737 15.9405 -8.2477 0.035367 -0.0120882 0.00344825 
112 1 -9.94406 16.6557 -7.99034 0.00208018 -0.0189866 0.0147256 
114 1 -9.97496 17.9867 -8.72057 -0.00595846 -0.0141849 -0.00298044 
124 1 -9.46741 13.9774 -6.86032 -0.00121439 0.0465066 -0.0193847 
121 1 -6.49022 14.4686 -9.35636 0.000697285 -0.00598864 -0.0197703 
123 1 -7.69028 13.8204 -8.58514 -0.0106841 0.0240376 -0.00646037 
127 1 -10.7729 14.7637 -6.83416 0.00180564 0.0195219 -0.00413255 
136 2 -9.01882 13.2439 -5.78985 0.00286825 0.130881 -0.0545346 
133 2 -7.55458 12.9894 -7.76336 0.00196625 0.0498536 -0.0261341 
118 1 -11.0078 16.0849 -7.22571 0.0102428 0.00853824 -0.00264129 
216 2 11.0636 13.097 10.6055 -0.0199042 0.0485474 -0.0094937 
122 1 -5.66245 16.924 -9.3675 -0.0234293 -0.0206903 -0.0124547 
134 2 -4.9478 16.335 -9.83463 -0.0423477 0.0406324 0.0734511 
342 1 11.1134 14.9912 10.2924 -0.0186775 0.00293316 0.00728737 
113 1 -8.98896 18.7945 -8.34957 -0.0123326 0.00288191 0.0144602 
117 1 -6.67765 19.0739 -8.96974 0.00290334 -0.011347 0.00329133 
126 1 -6.70147 20.5492 -8.507 -0.00748849 0.0113186 0.0248561 
138 2 -6.07485 20.9501 -7.81094 -0.0165268 -0.0138022 0.112193 
129 1 -7.83171 21.1239 -8.9942 -0.00377946 -0.0055905 0.0107685 
141 2 -8.12482 22.109 -8.5484 0.0467274 -0.00970139 0.0286789 
119 1 -8.9214 20.0757 -8.82134 0.00338111 -0.00477112 0.0150161 
130 1 -9.94003 20.6657 -9.65092 0.0101919 -0.0119032 0.000457228 
142 2 -10.2232 21.6331 -9.87233 -0.0804346 0.0496124 -0.00475815 
120 1 -11.3065 18.581 -8.98266 0.00936126 -0.00534981 -1.19321e-05 
132 1 -11.1461 20.0749 -9.11625 0.0101717 -0.014289 -0.0173332 
125 1 -5.62191 18.4307 -9.0722 -0.0253962 -0.00212344 -0.000302058 
137 2 -4.63434 19.0243 -9.09699 -0.00480567 -0.024169 0.0810764 
424 2 -0.298995 28.8831 -0.505694 -0.013 0.022442 0.0655623 
354 2 10.098 14.7726 10.1018 0.00161226 -0.0192779 0.00248925 
419 1 0.111337 34.4712 -1.90124 -0.0391746 0.0108206 0.00202454 
406 1 -0.437672 32.1163 -1.45746 0.0214463 -0.0102441 -0.0213436 
400 1 -1.4426 32.6513 -0.535943 -0.013425 -0.0326621 0.0115547 
412 1 -0.693439 29.916 -0.512083 -0.0222359 -0.0200591 0.0134506 
408 1 -0.781998 34.9251 -0.744459 0.0277123 -0.0177081 0.0188309 
416 1 0.196636 33.0674 -2.21261 0.0235933 -0.0142891 -0.010109 
428 2 1.09299 32.6405 -2.83649 -0.0572013 0.0414993 -0.012779 
415 1 0.0289909 30.7755 -1.28967 -0.0116831 -0.0117953 -0.00721746 
427 2 0.65539 30.0977 -1.86686 -0.0883151 -0.0334898 0.0892359 
423 2 -2.92542 28.4165 1.26677 -0.00653785 0.0322648 -0.039661 
410 1 -2.73948 32.3965 4.20803 -0.0271835 0.0126494 -0.013205 
341 1 11.4895 17.6293 9.8389 -0.0072223 0.00342738 -0.0266572 
414 1 -4.51835 35.2911 3.26638 -0.0207098 0.00924756 -0.00444869 
405 1 -3.81311 34.0574 3.27854 -0.00855599 -0.0121141 0.0121622 
399 1 -3.52525 33.5467 1.84105 -0.0141085 -0.0122514 0.00265196 
425 2 -3.67395 33.9683 5.43809 -0.0344519 0.00422735 0.0133805 
413 1 -3.53523 33.6784 4.34908 -0.012954 0.0224433 0.00267977 
422 2 -2.18151 32.6478 5.08545 0.0652832 0.00177005 -0.0496794 
397 1 -2.69233 32.2975 1.7612 -0.00592714 -0.00147209 -0.0264722 
401 1 -2.96298 34.2492 0.827722 -0.00983427 -0.0334643 0.00186932 
402 1 -1.60675 33.9915 -0.0994656 0.00640505 -0.00775669 -0.0131308 
403 1 -2.46069 31.5459 2.94402 0.00580311 -0.00393992 0.00455424 
398 1 -2.12462 31.7215 0.531018 -0.0218083 0.0144067 -0.012855 
404 1 -1.89228 30.3805 0.519112 -0.00556016 -0.0169164 0.00289996 
411 1 -2.63282 29.4123 1.39325 -0.00566404 0.00979175 -0.00902615 
409 1 -2.80459 29.9294 2.63627 -0.00993203 -0.0143358 -0.0202698 
407 1 -3.58358 35.6845 0.722572 0.00941117 -0.00277601 0.0029533 
350 2 11.7481 19.5846 10.5186 -0.0409284 -0.0436004 0.00377446 
139 2 -11.7635 14.3616 -6.38912 0.0413321 0.0248927 -0.0139803 
353 2 10.6257 17.8859 9.33054 0.00331659 -0.0975417 -0.0595453 
431 2 0.77449 34.868 -2.61891 0.0230049 -0.0294468 -0.0209276 
426 2 -5.58001 35.0758 3.68389 -0.088125 0.0509461 0.0132309 
345 1 11.881 13.8248 10.0384 -0.00591136 -0.00618941 -0.00716054 
429 2 -4.0538 35.9752 -0.23115 0.0527173 0.0172625 0.0944876 
179 2 9.1454 20.677 31.1036 -0.0869738 0.0189761 -0.0744668 
392 2 33.1132 -9.43015 3.85153 -0.0587084 -0.0434076 0.0397464 
380 1 33.9862 -9.65386 3.14102 -0.00879791 -0.000774299 -0.0232768 
383 1 34.1435 -8.91309 1.91964 0.0362331 0.00730919 -0.011527 
395 2 33.6544 -8.02112 1.68503 0.0522827 0.0241072 -0.0210158 
396 2 35.283 -7.10881 0.584255 0.0534456 0.109605 0.0273334 
537 2 35.0182 7.62752 -0.631439 -0.13631 -0.0169305 -0.0292348 
372 1 35.5672 -8.16858 2.1328 0.0173767 -0.0062456 -0.0116151 
379 1 34.707 -11.6368 4.68612 0.036355 0.0108112 -0.00964693 
370 1 34.9796 -10.7017 3.55476 -0.00646183 0.00517099 -0.0207328 
540 2 34.7177 7.96362 -1.02247 -0.00446501 0.015977 -0.0979015 
391 2 33.4437 -11.6358 4.60934 0.0140019 0.0172563 0.0270428 
493 2 21.899 -8.51914 23.6286 -0.151048 -0.0266769 0.055772 
496 2 23.5021 -10.3822 22.179 -0.0594744 -0.044434 0.0730547 
484 1 22.8462 -11.0061 22.5389 -0.00293307 3.9343e-05 0.0194257 
476 1 21.7663 -10.5441 23.6493 0.0100112 0.0343748 0.00466175 
245 2 32.0139 9.33387 25.2739 0.0421063 -0.0342145 0.0091392 
246 2 30.7299 10.265 27.4585 0.0198084 0.0208389 -0.0370244 
224 1 29.2739 11.0946 20.6284 -0.0110813 -0.0277814 -0.00183758 
243 2 30.2933 9.85577 19.2846 0.030338 0.0681181 0.0290174 
231 1 29.9416 9.86541 20.2534 0.0100369 0.00977684 -0.00438488 
218 1 29.6448 11.4911 22.0138 -0.00669696 0.0195828 -0.0136032 
217 1 30.018 10.7476 23.0819 0.0177404 0.0121002 0.00690721 
241 2 28.9537 8.34478 21.5635 0.0951048 0.0306339 0.0263655 
229 1 29.8066 8.85682 21.3717 0.00552408 -0.0261522 -0.0114884 
223 1 30.3364 9.19713 22.7137 -0.0140956 -0.0117666 -0.0112721 
242 2 30.9614 7.70299 23.8471 -0.0971094 0.00219907 0.0477219 
230 1 30.7509 8.63105 23.8076 -0.0233346 -0.0250365 0.0104871 
497 2 18.6941 -10.7293 29.3671 -0.0134655 -0.0192927 0.01788 
483 1 22.0912 -9.36386 24.4174 0.000638616 -0.00558596 0.00800618 
482 1 19.6687 -9.91127 27.6023 -0.00344814 0.00543948 0.00380973 
481 1 21.2042 -9.37815 25.5038 0.0166743 0.0344869 0.0215997 
494 2 19.2778 -8.98036 27.4031 -0.0220762 -0.0472033 0.00168056 
475 1 20.3806 -10.424 26.2695 0.0107461 -0.0154655 -0.0463824 
485 1 19.0762 -10.9636 28.4169 0.00672623 -0.0246875 -0.00835262 
469 1 20.1764 -11.5886 25.4911 -0.00700301 0.000377222 0.00440329 
233 1 31.0534 9.29417 25.1148 -0.0137877 0.0409373 -0.00389881 
219 1 29.7208 11.1563 24.4779 0.0170856 0.00234578 -0.00342328 
225 1 30.1356 10.2379 25.7335 -0.017917 -0.0110407 0.0140679 
234 1 30.3077 11.0941 26.9412 -0.0285976 0.00143271 -0.0226717 
470 1 20.85 -11.5421 24.1455 -0.00893327 0.026433 -0.0311725 
499 2 23.184 -12.0784 20.8486 -0.00839007 -0.0947467 -0.0241502 
501 2 17.7402 -11.5242 23.75 0.0307764 -0.0448133 -0.00343604 
471 1 18.7785 -11.9105 25.8119 0.00573065 0.0258749 -0.0162437 
208 2 18.542 17.7711 -7.74426 -0.0330545 0.0254572 -0.0459089 
207 2 16.3143 17.918 -8.85462 -0.00556249 0.0148295 -0.0352338 
205 2 15.2905 19.2122 -11.1057 0.0503902 -0.0556046 -0.0746578 
188 1 18.2743 19.1925 -9.09918 0.0157689 -0.00229797 -0.0317504 
571 2 28.1734 24.8434 8.30318 0.0258912 0.0795165 0.0630915 
181 1 18.2325 20.3817 -11.5209 -0.00409015 0.00312685 0.00518348 
193 1 16.175 19.368 -10.3493 0.0128649 -0.0202213 -0.00675649 
195 1 17.0207 18.5927 -9.44029 -0.0116789 -0.0294459 -0.00664706 
187 1 16.9382 19.8357 -11.4693 0.00674344 0.0159954 0.0122472 
376 1 35.317 35.8682 5.84134 -0.0108847 -0.0183812 0.0065504 
211 2 20.6441 18.8364 -6.7015 0.0176864 0.0745107 0.147684 
196 1 18.9906 18.6352 -8.09669 0.0259829 0.0124628 -0.0046353 
182 1 18.5345 20.3445 -10.1621 0.0171767 -0.0171154 -0.00861043 
185 1 19.9961 22.0256 -11.2238 0.0178739 0.0285662 -0.0205388 
212 2 22.0791 20.3838 -7.54381 0.128619 -0.048016 0.0249601 
199 1 20.1655 19.2885 -7.59363 -0.00438266 0.0315063 0.0104082 
190 1 20.4099 20.1787 -8.51236 -0.0114578 -0.00704387 0.00225299 
186 1 20.1826 22.1627 -9.87331 0.00696603 -0.0114099 0.00729614 
184 1 19.643 20.8511 -9.57928 0.0190687 0.0234649 0.00250041 
200 1 21.588 21.0234 -8.25647 -0.00879221 0.0104064 0.00522777 
192 1 21.5205 22.7452 -9.86884 0.0102371 0.0107031 -0.0235908 
203 1 21.9286 22.3307 -8.4994 -0.00453515 -0.012965 0.0253669 
215 2 22.3097 22.9159 -7.71252 0.035973 -0.0236792 -0.0495973 
204 1 22.2338 23.9279 -10.7887 0.0295887 0.00299539 -0.0104361 
191 1 20.2862 23.3256 -11.8904 0.0171517 0.0019317 -0.00709964 
360 2 14.8045 12.2983 7.10358 -0.0075565 0.00613411 0.00562074 
566 2 21.9879 22.3659 3.33216 -0.0337753 -0.00516728 -0.107732 
557 1 22.0338 21.4014 5.16586 0.00037842 0.00995897 -0.00344096 
554 1 22.6833 22.2993 4.15923 0.0266649 0.020575 0.0324489 
569 2 21.0403 20.9983 5.06677 -0.00391421 0.0123035 -0.0342718 
549 1 22.9321 20.6272 5.88078 0.0261205 0.00531455 -0.000959946 
547 1 24.0161 22.5793 4.46174 0.00832432 0.010083 0.00857782 
543 1 24.1711 20.8786 6.27217 -0.00355486 -0.00587813 0.031952 
565 2 24.2913 23.6607 2.67379 -0.104123 -0.0751186 0.00231714 
553 1 24.6324 23.6024 3.59683 0.00952739 -0.00260714 -0.00830135 
548 1 26.6269 23.5906 5.07459 -0.0312084 0.0130891 0.0322675 
541 1 24.7282 21.8459 5.46055 0.0140563 0.00875122 0.0149819 
542 1 26.0631 22.324 5.60132 -0.00808817 -0.0166352 0.016779 
568 2 27.6142 25.5419 5.77399 -0.0828394 0.0601573 0.0306423 
556 1 27.3862 24.3236 5.98037 -0.0040947 -0.00459086 0.00873614 
555 1 25.839 24.117 3.93695 -0.00782281 0.010915 -0.00140661 
567 2 26.1508 25.1763 3.46446 0.00519691 0.127368 -0.0668193 
358 2 12.5832 13.0193 7.02636 -0.0218931 0.0186953 0.00409932 
572 2 28.1329 22.7448 9.75949 -0.127408 0.0256119 0.0387342 
348 1 14.9146 13.2485 7.71998 0.00140575 0.00197911 0.0164494 
564 1 26.7292 18.681 8.17095 0.0263153 0.00516388 -0.0319625 
576 2 27.4841 17.9834 8.10927 -0.0421247 0.0291312 0.0131012 
335 1 13.1361 13.939 9.31715 0.00295122 -0.00359114 0.0167265 
346 1 13.4057 13.3566 8.0213 0.00114656 0.00475715 0.0084705 
336 1 15.809 13.6652 8.86485 -0.0230824 0.00899461 -0.022134 
329 1 14.0555 15.0949 9.59932 -0.0394001 -0.0292368 -0.00736475 
330 1 15.4768 14.9445 9.25931 0.00151954 0.00493709 -0.000746788 
328 1 16.0856 16.0556 9.41436 0.0270419 -0.0258677 -0.00792999 
333 1 11.9739 16.3175 9.96311 -0.0107102 -0.00566976 -0.0025894 
327 1 13.4872 16.4233 9.99004 -0.0167703 -0.000167246 0.00205406 
359 2 17.2931 13.1498 7.17036 -0.0947561 -0.0131554 0.0748826 
347 1 16.7744 14.0299 7.8087 0.00772368 0.00706751 -0.00341189 
325 1 14.3957 17.4013 9.97421 0.0176022 0.0197829 -0.00123682 
344 1 17.1663 15.447 7.60411 0.00108933 -0.0188777 -0.0246217 
356 2 17.8863 15.9439 6.85359 0.0256224 -0.00741262 -0.00787211 
334 1 17.4181 15.9159 8.92417 0.018106 -0.00786092 -0.00442601 
343 1 18.1671 17.2894 8.93168 -0.00788852 -0.0247273 -0.00321748 
574 2 25.2102 17.9131 9.48627 0.0282267 -0.0355489 0.0799306 
388 2 34.5645 35.2801 6.30855 0.0233657 0.00150844 0.0504415 
331 1 13.581 18.6345 10.0404 -0.01108 -0.0137056 -0.0218918 
351 2 16.1984 20.7514 9.80554 -0.00448129 0.0927685 -0.0866654 
337 1 14.2396 19.771 9.46605 -0.0210665 -0.0349394 -0.000426182 
326 1 15.714 17.2344 9.7041 2.07088e-05 -0.00603429 -0.00395552 
339 1 15.5658 19.753 9.64493 -0.00240848 0.0120102 -0.0133362 
349 2 13.4845 20.8163 9.66551 0.0394826 0.0194548 -0.0235241 
332 1 16.3812 18.4705 9.63972 0.00284662 0.0134967 0.0255633 
338 1 12.2823 18.687 10.4685 -0.0204742 -0.0330785 0.0273119 
570 2 21.2452 18.9302 6.22507 -0.045418 -0.0850957 -0.0699462 
558 1 22.3366 19.3083 6.24387 -0.0270834 -0.00639845 -0.0108093 
573 2 22.094 17.8224 7.83035 -0.109465 0.065358 -0.00548045 
561 1 22.849 18.3117 7.21479 0.0263523 -0.000591989 0.0124106 
340 1 17.7865 18.7397 9.50966 -0.008432 -0.00956357 0.00245472 
352 2 18.0152 19.7498 9.50588 0.010829 0.00779189 -0.014572 
355 2 18.3088 17.6153 8.01549 -0.0487843 -0.0844927 -0.0985989 
559 1 27.6498 24.116 7.37074 0.0381792 -0.00122326 -0.0136752 
550 1 27.3351 22.6679 7.57364 0.00689949 -0.00757979 0.00458391 
544 1 26.4794 21.9371 6.70074 0.0365764 -0.0270461 0.00984612 
551 1 24.2396 18.9279 7.6166 0.00159425 0.00724438 -0.00536544 
545 1 25.0763 19.9091 6.92249 -0.0243976 0.0221019 -0.013888 
546 1 26.134 20.5432 7.03179 -0.0239145 -0.0203127 0.0312697 
560 1 27.8572 22.0555 8.88339 -0.00733119 0.0207115 -0.00130469 
562 1 25.3399 18.3297 8.36412 0.010626 -0.00998859 -0.0119917 
575 2 28.4784 19.9822 9.54364 -0.00773722 0.00980998 -0.105051 
563 1 28.297 20.7726 8.80736 -0.0278947 0.00547092 0.00484051 
552 1 27.0769 20.1252 8.00924 -0.0146262 0.0250133 -0.00703132 
202 1 21.5138 24.2628 -11.866 0.00295395 0.014557 0.0287387 
247 2 29.1346 13.7944 18.8494 -0.0922934 0.0112995 0.109495 
226 1 29.1013 13.9841 21.2075 0.00270593 0.0106395 -0.0173034 
235 1 29.097 13.3264 19.7388 -0.00363441 -0.0281735 -0.01223 
222 1 29.5423 13.5379 23.4816 -0.00784642 0.000978798 0.011848 
220 1 29.3568 13.0197 22.2286 -0.00479771 0.021905 0.020249 
248 2 29.5312 15.8508 20.2299 -0.106964 0.152665 -0.000549363 
251 2 29.8022 16.8161 22.6495 -0.0279416 -0.0149061 0.0559822 
236 1 29.4447 15.3422 21.4704 -0.00602278 0.0191282 0.00793 
239 1 29.6314 15.7885 22.7425 -0.0103904 0.00619334 0.0222704 
228 1 29.2508 15.0964 23.8298 -0.00603368 -0.00524951 0.00881085 
504 2 18.9455 29.6531 22.8855 0.0122705 -0.107526 -0.0329753 
249 2 29.9931 12.997 28.2932 -0.0147339 -0.0882376 -0.103975 
487 1 22.5732 36.0255 21.682 0.0219823 0.0233659 -0.00413969 
478 1 21.173 35.2876 21.66 0.00531296 -0.0025072 -0.0117948 
503 2 21.1706 34.5392 21.1226 -0.00249083 0.00310564 -0.0148814 
502 2 19.5654 29.3 24.2871 0.00670764 -0.133917 0.00648737 
490 1 19.155 30.3018 23.8089 -0.00193377 0.00666209 0.0153059 
472 1 20.651 35.3903 23.0708 -0.00903804 -0.016561 0.0101466 
232 1 29.2839 12.032 19.4562 0.0236198 0.000887787 -0.0085644 
178 2 16.2059 16.7107 26.9327 -0.0200196 0.00984212 0.0227742 
166 1 16.9656 16.9356 27.5788 -0.0168511 0.0057646 -0.00706674 
180 2 16.6843 15.9767 29.7397 0.0171254 0.0423149 -0.0117389 
168 1 17.1819 16.5999 29.0919 0.0136898 -2.82086e-05 0.0197492 
156 1 18.245 17.3623 29.8407 -0.00846124 0.0112442 -0.00424068 
250 2 30.0623 15.1467 26.8953 0.0655338 0.0790315 0.0165745 
227 1 29.7448 13.0222 25.9393 0.0181902 0.0241459 -0.0147522 
238 1 29.7666 14.5539 26.0301 -0.0168637 0.0209174 -0.00669331 
221 1 29.4419 12.4932 24.4976 0.0265928 0.0224173 -0.024655 
252 2 29.2834 16.8701 24.5857 -0.0947347 0.0683996 0.0477273 
240 1 29.2333 15.6093 25.0976 -0.00249435 -0.0114143 -0.00157944 
237 1 29.8965 12.4169 27.2185 0.00343096 -0.0242187 0.000921568 
71 2 21.9603 26.7332 30.7562 -0.0240722 -0.0423903 -0.0336094 
174 2 16.9752 18.3132 25.138 0.0980009 -0.074585 -0.0926641 
165 1 17.4509 18.8801 25.9968 -0.011977 0.0118151 0.0011487 
162 1 18.2604 19.9028 25.9042 -0.018684 -0.00681177 0.0247267 
155 1 17.6332 18.2821 27.4793 -0.00440378 -0.0165704 -0.000448374 
173 2 18.2836 22.8009 26.5815 0.0066503 -0.0607039 0.0511096 
161 1 18.9724 22.1976 27.1979 0.021298 0.0250639 -0.00615533 
158 1 20.1402 22.8533 27.9313 0.0127634 -0.0154515 -0.0231927 
151 1 20.0607 22.1706 29.3259 0.015883 0.0098148 0.00423675 
145 1 19.9781 20.7501 29.4434 -0.00246977 -0.00167774 -0.00561892 
153 1 18.5118 20.7506 27.1419 0.0184126 0.0139545 -0.00786313 
147 1 19.1844 20.1298 28.2446 -0.029531 0.0115744 0.0173929 
150 1 18.9856 18.3802 29.6105 0.0151246 -0.0246787 0.00252789 
149 1 18.4695 19 28.3593 -0.00539228 0.00561844 0.0149563 
157 1 21.054 22.8651 29.9945 -0.00291275 -0.00673164 0.0146085 
170 2 20.6454 23.7006 27.7231 -0.0579733 -0.00126932 -0.0145959 
171 2 21.2431 23.7175 29.3261 0.0399092 0.0415306 -0.0766599 
244 2 29.0234 12.1866 18.4066 0.025401 0.00637664 -0.0189422 
479 1 18.0527 35.9352 24.6041 0.0174895 -0.00520891 -0.00321428 
500 2 21.34 31.3353 26.9967 -0.0314539 -0.0462136 -0.0206435 
473 1 18.6602 34.9517 23.882 -0.00919001 -0.0113067 0.00895616 
486 1 19.8729 34.6374 27.6687 -0.0350203 -0.00154834 -0.0134663 
492 1 19.5586 31.3883 24.0066 -0.00956604 -0.00511341 -0.0175118 
480 1 19.8808 32.7152 24.2625 0.000443309 0.00883154 -0.0364472 
477 1 19.0944 35.8588 27.4098 -0.00150939 -0.00934636 0.00376083 
474 1 19.6849 34.1698 23.567 -0.00546945 0.0225175 0.00458716 
491 1 20.2748 32.3814 25.6571 0.0158636 0.0306076 -0.00117582 
489 1 20.7089 33.5961 27.7988 0.00588501 0.0473022 -0.00861594 
498 2 21.5346 33.2487 28.4986 0.00884671 -0.0553401 0.0418921 
488 1 20.887 32.5081 26.859 -0.0054214 -0.00701292 -0.0122791 
183 1 19.0103 21.3455 35.9299 0.0244269 0.00143711 0.00852259 
167 1 18.7675 16.6187 31.1899 0.00286929 0.000205948 -0.00404906 
164 1 20.2179 16.7581 31.2143 0.0186007 -0.00449838 -0.00808649 
176 2 20.2708 15.7394 31.715 0.112223 0.00104525 0.0277051 
206 2 15.403 20.4764 35.0421 0.0302443 -0.00298933 0.0227417 
194 1 16.4567 20.276 35.2332 -0.00138376 -0.0239475 -0.000594338 
197 1 17.5729 20.7073 34.314 -0.00415225 -0.00807269 0.0174651 
189 1 18.3209 21.8511 34.7707 0.0224598 0.0332403 -0.0130041 
209 2 17.1027 21.4199 33.5907 0.0370995 -0.0643249 -0.0794505 
175 2 22.5848 18.1274 31.9949 -0.0436207 -0.0217467 0.0747674 
148 1 19.9129 19.0315 30.5372 -0.00864296 -0.00853335 0.00199299 
146 1 20.4016 20.3336 30.4571 -0.0144475 0.0112257 -0.00408028 
154 1 20.6818 18.1297 31.2256 -0.00240408 -0.0241604 0.0171171 
210 2 18.5416 23.5866 33.0648 -0.00428905 0.00207449 -0.0630555 
198 1 18.7201 23.1352 34.0689 0.00250894 0.00228546 -0.00666512 
160 1 21.9877 20.3064 32.3759 0.0218775 0.0153041 -0.00693831 
159 1 21.6287 22.5082 31.4117 -0.025512 -0.0106642 0.0144308 
152 1 21.5204 21.0433 31.165 -0.0130696 -0.0073712 0.0156346 
201 1 19.2755 23.8102 35.1568 -0.00926692 0.013972 -0.0209119 
163 1 21.8485 18.9523 31.8569 -0.00674432 -0.00871782 -0.024802 
169 2 21.5906 23.2712 32.103 0.0304693 -0.0621697 0.0134946 
172 2 22.1925 20.5812 33.4475 0.0111854 -0.00390217 -0.0161456 
214 2 21.5884 25.22 35.8364 0.0818687 -0.127743 0.0244919 
213 2 19.8507 24.5704 34.7732 -0.0165555 0.119321 -0.0601011 
33 2 40.7979 8.12958 -6.27032 -0.0780736 0.023392 -0.0300354 
11 1 41.6734 9.38268 -7.75673 -0.0215894 0.0397228 0.00971494 
18 1 41.0537 10.3167 -5.93346 0.0122157 -0.00628792 -0.0246857 
21 1 41.2607 9.07696 -6.44894 -0.00680736 0.0156406 0.0103787 
22 1 41.903 8.25175 -8.73389 -0.00626564 0.00381899 0.0178234 
34 2 41.9033 7.24406 -8.72262 -0.051234 -0.0300278 -0.0195136 
5 1 42.4464 10.6141 -8.18081 0.0306458 -0.0278305 -0.00154606 
24 1 42.5444 8.40381 -9.93397 -0.0129372 0.00758898 0.0048585 
6 1 42.9153 11.0704 -9.55247 -0.0104228 0.00162713 0.0124371 
12 1 42.8823 9.80188 -10.3879 -0.0244159 -0.00279295 0.00668125 
36 2 42.3076 7.47671 -10.818 0.00129696 0.100948 0.0287395 
322 2 53.5795 -2.06824 10.802 -0.0680479 -0.0458672 0.0300416 
9 1 42.2245 11.346 -5.57345 0.00761434 -0.0103396 0.0206295 
375 1 37.3608 -11.8545 7.52196 0.0199535 0.00613729 -0.00392526 
30 2 40.3778 10.9891 -6.48153 -0.0268587 0.0994899 0.0609611 
381 1 39.0968 -5.95531 3.45493 -0.011659 0.0198418 -0.0104857 
371 1 37.9185 -6.82114 3.10913 0.015784 0.0185886 -0.0408744 
378 1 39.6366 -6.61276 4.61059 0.00375563 -0.0104403 -0.010663 
363 1 37.9545 -8.30659 5.08022 -0.011207 0.0142235 -0.00949783 
365 1 37.4772 -7.93492 3.82531 0.00536984 -0.00437266 -0.0331466 
390 2 37.7853 -6.05302 1.24504 0.0307593 0.0972982 0.109753 
382 1 37.1747 -6.63592 1.87018 0.0176616 -0.0355984 -0.00242788 
393 2 39.2763 -4.82334 3.17295 -0.016375 0.00432276 0.0577485 
495 2 40.6577 -6.30843 4.90072 -0.0109929 -0.0437221 -0.00485649 
318 2 51.916 -1.95769 5.82042 -0.138569 -0.0567727 -0.0223535 
306 1 52.9386 -2.10947 6.2244 -0.0183462 0.0156333 0.00372911 
313 2 58.5052 -3.31185 2.8866 0.0166492 0.0373521 -0.00239136 
314 2 56.0088 -2.7912 2.51074 -0.0987954 -0.000860936 0.0261536 
317 2 53.4691 -2.15003 3.33904 0.0103508 0.00343504 0.063335 
291 1 55.2156 -2.85205 6.36669 -0.0140782 -0.00505496 -0.00634716 
289 1 56.4934 -2.69167 5.77586 -0.0246887 0.00274688 0.00341964 
297 1 54.0147 -2.43478 5.54599 0.00500619 -0.00749333 -0.00111572 
302 1 55.3988 -2.57775 3.60205 -0.0117613 0.000134707 0.00111659 
305 1 54.0783 -2.55884 4.07984 0.00730072 0.00385538 0.0113781 
295 1 56.4361 -3.23899 4.38139 0.00727857 -0.0106463 -0.0225745 
301 1 57.7169 -3.29228 3.83793 -0.00553695 0.014885 0.00821501 
303 1 59.1648 -3.55104 4.40467 -0.0153194 0.0231839 0.0223557 
315 2 59.7899 -4.4127 4.42971 -0.0401793 0.00882335 -0.00962285 
364 1 36.418 -10.3746 3.85978 0.0134308 -0.00328002 -0.00993012 
366 1 36.3106 -8.9447 3.19818 0.0225728 0.0036068 -0.0250979 
367 1 38.3755 -9.51086 7.25425 0.00488811 -0.0072879 0.00114414 
369 1 39.062 -7.46449 5.62523 0.019325 -0.00021507 -0.012285 
374 1 39.1089 -8.24781 7.72833 -0.015265 -0.00487232 -0.0100408 
377 1 39.1952 -7.05245 6.9957 0.0216302 0.00978409 -0.0299367 
386 2 39.2416 -8.58697 8.7827 0.0895345 -0.065144 -0.105605 
389 2 39.6507 -5.99598 7.3378 -0.0381095 -0.0283619 -0.0155919 
373 1 38.0998 -10.8564 7.96376 0.0192095 -0.0175741 0.00743067 
361 1 37.7644 -9.34097 5.97163 -0.000988429 0.0165435 -0.000861141 
385 2 38.3968 -11.0525 8.97905 -0.00584746 0.0126462 -0.00848899 
362 1 36.8288 -10.6093 5.2743 -0.00535103 0.0316634 -0.0113798 
309 1 53.0878 -1.72544 7.68071 0.0121862 -0.000766827 -0.00671983 
321 2 52.4155 -1.05689 8.36864 -0.0322934 0.00311312 0.014826 
310 1 54.0232 -1.77802 9.90953 0.0265875 -0.0119974 -0.00754668 
324 2 55.3026 -2.26635 11.6448 0.0754768 0.0458531 0.0484702 
299 1 53.973 -2.38606 8.55319 0.0248256 -0.00908153 0.0025809 
293 1 55.1817 -2.67717 7.91367 0.00239306 -0.014696 0.026251 
294 1 56.4055 -2.2963 8.53096 0.0288686 -0.015026 -0.00460447 
296 1 58.6561 -3.84522 5.75395 -0.00389971 -0.0174819 -0.00118286 
311 1 58.1243 -1.9074 10.1602 0.010587 0.0134611 0.0187119 
300 1 56.8043 -1.49925 9.84634 -0.00226887 0.00970057 0.027124 
320 2 59.3024 -4.01188 10.3568 0.0359246 -0.0390958 0.010686 
308 1 58.9114 -3.14084 9.75521 0.0214993 -0.014584 0.0207115 
292 1 57.3868 -2.91198 7.92233 -0.0189144 0.0364795 -0.005466 
307 1 59.6769 -4.45252 8.04626 -0.0111498 -0.0198672 0.0131572 
298 1 58.8254 -3.35983 8.33501 -0.0149719 -0.000621263 -0.0186848 
304 1 59.8229 -4.22851 6.62219 0.0280494 0.0229962 -0.0314216 
290 1 57.5536 -3.34091 6.66538 -0.0131326 0.00349832 -0.0140014 
323 2 58.695 -1.10161 10.6972 -0.0260764 -0.00845868 -0.0229306 
312 1 55.4097 -1.6529 10.496 0.0107437 -0.0178437 0.0130084 
368 1 36.7528 -11.6424 6.14027 -0.00391458 0.00451782 -0.0104848 
3 1 42.7944 11.4184 -7.05964 0.0205391 -0.00797147 0.00752247 
23 1 43.6685 10.0262 -11.4616 -0.00255025 -0.000485861 0.000743097 
384 1 36.0778 -6.97442 1.16676 0.00443169 0.000286682 -0.0270419 
35 2 43.8996 9.12088 -11.7689 -0.0628029 -0.0681272 0.0110414 
32 2 44.0575 11.0287 34.4754 0.0936983 0.233035 0.0414122 
20 1 43.8445 11.1225 35.634 -0.0324886 0.015842 0.00216057 
44 1 41.6919 -11.5284 27.8741 -0.033679 -0.0278842 -0.00582452 
61 2 44.4331 -11.5696 25.9851 -0.0307806 -0.0354759 -0.0324102 
55 1 38.7109 -11.573 28.0922 0.00472791 -0.0293902 -0.0207786 
38 1 41.6023 -10.626 28.7339 -0.0267646 -0.00522026 -0.00974145 
46 1 38.9272 -10.5745 28.9417 0.025932 0.00201176 0.00773599 
40 1 40.3132 -10.0714 29.3565 0.00948659 0.010053 0.0115126 
68 2 36.2381 -9.43575 28.5551 0.0266154 0.0336037 -0.0914884 
56 1 38.3257 -9.15152 28.8389 0.0198995 -0.020088 0.0083572 
42 1 40.609 -8.80408 29.8688 0.000778653 -0.0139562 0.0178173 
59 1 37.0381 -8.79879 28.485 0.00610158 0.000998145 0.0134562 
48 1 39.6769 -8.10114 28.8347 -0.0105286 -0.00955114 -0.0246347 
47 1 41.8972 -6.62938 29.7876 0.000753464 0.0111234 0.029546 
60 1 39.5431 -6.6451 28.983 0.035387 -0.0125734 -0.0195504 
49 1 43.7912 -11.4101 26.9132 -0.0290538 0.0056696 0.016656 
62 2 46.0974 -10.4577 27.8843 0.0148886 0.119855 -0.0136573 
43 1 43.9484 -10.4662 28.1885 -0.00218138 0.0071759 0.00448258 
50 1 45.2814 -10.3107 28.3818 -0.0114448 0.0181406 0.0163442 
53 1 45.4448 -8.94852 29.0224 -0.00120249 -0.00883761 0.00940721 
37 1 42.7644 -9.91104 28.7146 0.00813571 -0.0139356 -0.00651853 
65 2 46.5289 -8.76572 29.2475 0.0851906 -0.0459649 -0.0438268 
39 1 43.246 -8.69369 29.1902 -0.0136897 0.00638423 0.0224514 
45 1 44.478 -7.95139 29.4258 0.00988655 -0.0388159 -0.00832818 
41 1 41.9315 -7.97314 29.5963 0.00140275 -0.0149949 0.0262727 
287 2 50.9009 -11.8531 17.4572 -0.0172325 0.0291607 0.0554909 
72 2 38.4208 -6.03141 29.5252 -0.0547253 0.0388941 0.015224 
54 1 44.3652 -6.38746 29.5112 0.00407689 -5.37908e-05 -0.0102332 
58 1 40.6192 -5.61577 29.392 0.00864557 0.00515924 -0.0093809 
70 2 40.7141 -5.1612 30.5279 -0.0357555 0.032115 0.0175284 
69 2 45.548 -6.15133 29.7319 0.098522 0.0353309 -0.0142871 
66 2 43.2417 -4.85991 30.3384 -0.00974769 0.069919 -0.0697518 
57 1 43.2234 -5.87808 29.962 -0.0428041 -0.00276009 -0.0162234 
52 1 40.1609 -12.0141 27.7605 0.00158612 -0.00517496 0.011883 
29 2 42.0951 12.3145 -4.03682 0.0487282 0.0220974 -0.0635183 
2 1 43.7202 13.0708 -9.07659 -0.00605639 -0.0263489 -0.0110509 
14 1 44.1061 13.2485 -5.27631 -0.00934721 0.019412 0.0189315 
7 1 44.3391 13.4348 -6.7403 0.00626298 0.00198189 -0.00337126 
1 1 43.3676 12.6875 -7.74664 -0.00669882 0.0014109 -0.0229258 
13 1 45.1213 14.5439 -7.18198 -0.00631405 -0.0103197 0.0341578 
25 2 46.2259 15.0932 -6.73019 -0.0217597 0.0125225 0.00918506 
15 1 44.9696 15.0324 -8.63852 -0.0226526 -0.0116888 0.0182627 
27 2 45.4322 16.1744 -8.94964 0.0156064 -0.0592181 0.0134419 
8 1 44.5424 14.2613 -9.45077 -0.0229098 -0.0154449 0.0111966 
4 1 43.4665 12.1202 -10.1192 -0.000851468 0.0112235 0.00810307 
17 1 43.0514 12.2648 -4.80523 -0.00464434 -0.023251 0.048254 
26 2 44.0547 14.3804 -4.91047 -0.0044234 0.0170089 0.0209468 
387 2 37.475 34.9048 7.69736 -0.0219365 -0.0515202 0.00268977 
16 1 44.539 14.3827 -11.1067 0.0181719 0.000568031 0.0159305 
10 1 44.2494 12.1293 -11.5084 0.0108632 -0.0223852 -0.00335653 
28 2 44.9289 15.2061 -11.9479 0.0859512 -0.00296083 -0.0581676 
272 1 49.1683 34.9564 17.7541 -0.000193462 0.00373717 -0.021025 
258 1 51.3397 33.3809 19.0854 -0.00790621 0.0130643 0.0251245 
275 1 50.5751 35.2442 17.8737 -0.0107922 -0.000785897 0.0118525 
264 1 51.7424 34.3898 18.0815 0.0183637 0.00396736 -0.00943157 
276 1 52.8813 33.993 17.1675 -0.00137061 -0.00522329 0.0260282 
288 2 53.1911 34.8991 16.6073 -0.103255 -0.0510452 0.0156013 
274 1 53.6532 32.8196 17.4806 0.0138635 0.0159563 -0.0261517 
286 2 54.8177 32.8095 17.2082 -0.00267526 -0.0295375 0.00745485 
277 2 47.3051 29.9879 23.0001 0.00620511 -0.0230976 0.0142476 
278 2 49.3362 28.3174 21.8568 0.0295016 -0.0343668 0.0322343 
269 1 51.4132 28.8523 20.8988 -0.0248596 -0.00586323 0.00301111 
281 2 51.9959 28.1238 21.0161 0.051167 0.023017 0.0284202 
261 1 51.8056 29.9821 20.2647 -0.000692364 -0.0096376 -0.00773073 