ITEM: TIMESTEP
680000
ITEM: NUMBER OF ATOMS
576
ITEM: BOX BOUNDS pp pp pp
-1.2000000000000000e+01 8.4000000000000000e+01
-1.2000000000000000e+01 3.6000000000000000e+01
-1.2000000000000000e+01 3.6000000000000000e+01
ITEM: ATOMS id type x y z vx vy vz 
567 2 10.2892 -0.763976 4.48294 0.0749567 0.0757359 0.0393791 
177 2 10.0903 -7.54244 10.9637 -0.0619092 -0.0294279 0.02818 
548 1 10.9299 -1.6537 4.45329 0.00208315 -0.000546599 0.00438784 
555 1 10.9889 -2.85481 5.47919 0.0211579 0.00550731 0.017108 
568 2 8.98193 -2.36765 6.36282 -0.0144059 0.0039022 0.10625 
571 2 10.5426 -2.49236 8.60428 -0.0258974 -0.00375347 0.0824545 
572 2 11.1359 -7.77112 9.5328 0.0540652 -0.0428765 -0.0166112 
556 1 9.75863 -2.9829 6.38994 -0.019249 -0.0179405 0.0196983 
550 1 11.1444 -4.49214 7.57705 -0.00982336 -0.0100741 -0.0298049 
560 1 10.9356 -5.10905 8.98378 0.0102358 0.0103773 -0.0142681 
563 1 10.9963 -7.0859 10.315 0.0247969 0.00284013 -0.0174242 
552 1 10.9758 -5.73644 10.052 -0.0145798 -0.00226135 0.00186976 
559 1 10.4925 -3.17428 7.58511 0.0109037 0.00284474 -0.00358808 
324 2 -12.0178 -3.72307 28.5932 -0.036618 -0.0108555 -0.0691751 
429 2 -10.7206 25.7258 -6.27951 0.0460062 0.0309315 -0.0369036 
417 1 -9.83295 25.9109 -7.19718 -0.0052179 0.00084668 0.00130574 
407 1 -9.21905 26.0932 -8.10554 0.0309033 -0.00710954 -0.00468434 
278 2 -0.917044 17.4716 -9.85697 -0.0207047 0.0083831 -0.130829 
401 1 -9.25941 26.3876 -10.9738 -0.0324073 0.0194802 -0.0167676 
418 1 -8.26149 29.5531 -7.09717 0.0295207 0.0217245 0.0142813 
399 1 -8.71067 26.4353 -9.70714 -0.0208223 0.0108388 -0.00203196 
405 1 -8.24331 27.6299 -9.55203 0.00386139 0.0120413 -0.0190303 
136 2 -7.78264 30.2576 -5.58502 0.0405621 0.0646712 0.0362355 
420 1 -8.81698 30.2507 -6.01753 0.0192384 -0.00121701 0.00244061 
430 2 -9.74393 30.4251 -5.38917 -0.0207769 -0.0149499 0.0491079 
426 2 -7.30479 29.5843 -9.84715 0.0193869 -0.0145782 -0.0577021 
414 1 -7.90363 28.7485 -9.60352 -0.0136869 -0.0269047 0.0025729 
408 1 -7.49941 29.1288 -8.07709 -0.00715057 0.0310949 -0.0253296 
283 2 -0.969393 16.5805 -9.94022 -0.0123146 -0.0897767 -0.0756508 
432 2 -6.60088 29.1882 -7.56774 0.0616813 -0.00450857 0.045218 
33 2 -10.9726 29.4906 -11.7733 0.0428962 0.0962219 -0.0367136 
64 2 11.3989 20.9875 23.4748 0.0543414 0.0505589 -0.0470304 
464 2 10.9987 21.6615 23.7918 0.0842443 -0.0753794 -0.0806539 
400 1 -9.41873 26.4452 34.3526 -0.00101524 -0.00280176 -0.0420903 
416 1 -6.00039 25.88 32.4514 0.00494336 -0.0142307 -0.0280145 
404 1 -10.5798 26.5044 32.3206 -0.0129245 0.0179149 -0.0215715 
424 2 -8.61721 27.1385 31.0457 0.0241477 -0.0055707 -0.0849492 
412 1 -9.18803 26.4405 31.824 -0.00684202 0.00273203 -0.00724301 
398 1 -10.8454 26.2737 33.7915 -0.00292025 0.00556701 0.00563449 
415 1 -8.33253 26.2662 33.3539 -0.009703 -0.0137856 -0.00830597 
406 1 -7.04979 25.4911 33.3428 0.0233686 -0.00902449 0.0103157 
397 1 -11.6679 27.4923 33.9774 0.00294824 -0.0144165 0.0125819 
428 2 -4.18638 25.5161 31.5482 0.0740799 -0.0416465 0.0596752 
419 1 -5.06052 26.2632 31.5021 0.0130956 -0.0124226 -0.0116856 
431 2 -5.23899 26.7354 30.5611 0.0197031 -0.0747133 0.0202968 
411 1 -11.4888 26.9719 31.3812 0.0204694 0.0184913 0.000101392 
17 1 -11.1656 28.3374 34.7539 0.0147453 -0.0148944 -0.00941028 
427 2 -11.2816 27.1989 30.0849 -0.0346461 -0.0252617 0.0248305 
29 2 -9.44835 28.5892 35.3654 0.0886182 -0.0295092 0.0258299 
14 1 -10.418 29.0391 35.6894 -0.0153203 -0.0185861 -0.0230966 
504 2 -11.3348 15.7362 30.4663 0.0349466 -0.0350734 -0.038794 
402 1 -9.27815 26.2986 35.8124 0.0141889 0.000252094 -0.0148224 
71 2 -11.0133 16.0061 29.8436 0.10483 0.00477374 -0.0642241 
540 2 14.2167 5.74763 -7.16625 0.0171005 0.000309129 0.0180607 
537 2 13.9725 6.46737 -7.51645 -0.0871661 0.0464657 0.0374939 
279 2 20.3676 9.1451 -6.77693 0.0188531 -0.00117763 -0.0234816 
277 2 21.5724 7.25741 -7.6982 -0.00971197 0.019431 0.0386019 
265 1 21.5862 7.49312 -6.63467 0.00697038 0.0212146 -0.0167621 
281 2 23.9068 5.86089 -7.0887 0.018899 0.0251213 0.000159062 
275 1 18.4077 6.59909 -0.251167 0.00968037 0.0119054 0.00425254 
264 1 19.9352 6.07823 -0.420076 0.0277814 -0.000234172 0.00238757 
257 1 21.9808 5.56126 -2.00677 -0.0274984 -0.00856344 0.00990573 
274 1 21.6258 4.52725 -0.150774 0.00232279 -0.00607007 0.022734 
255 1 22.6911 5.84844 -3.29515 -0.0356877 0.00296259 -0.00368799 
263 1 22.7924 4.80478 -1.07668 -0.00879352 0.0149082 0.0198359 
273 1 24.0525 4.042 -1.18109 -0.00686413 -0.0172432 -0.00545244 
266 1 23.4111 5.75359 -6.09059 -0.00537157 -0.0290689 -0.000188726 
261 1 23.2994 4.66814 -3.84426 -0.00610551 0.0164545 -0.0200305 
270 1 23.9401 3.68545 -2.7498 -0.00456371 0.0241425 -0.004489 
285 2 24.8437 3.34002 -3.20252 -0.0363055 0.0615548 0.0641792 
269 1 24.0485 4.71981 -5.16275 0.0108586 -0.0147371 0.0141389 
287 2 17.5884 8.35333 -0.5615 -0.0172382 -0.0382804 0.0537562 
256 1 20.2714 7.40989 -2.52698 -0.0171072 0.0128203 -0.0114301 
258 1 20.6869 6.3541 -1.71595 0.00503695 0.00448792 -0.0263551 
272 1 18.1418 7.61941 -1.12528 -0.00555322 0.03148 0.021058 
262 1 18.8868 7.88274 -2.47348 -0.0045773 -0.010201 0.00906932 
271 1 18.5024 9.04308 -3.42149 0.00575056 -0.00449116 0.00202664 
254 1 21.0397 7.46365 -3.93122 -0.00201118 0.00330677 0.0182572 
268 1 19.6138 9.64816 -4.12394 -0.00432729 0.0206663 -0.0163727 
253 1 22.0682 6.46219 -4.28157 0.00502635 -0.0140111 -0.0203321 
280 2 19.6962 10.7914 -4.55453 -0.0365726 -0.0193017 0.0365392 
260 1 20.5765 8.639 -4.61637 -0.0174857 0.0192804 -0.0186763 
267 1 20.9955 8.47731 -6.06926 0.000883981 0.000423541 0.0122391 
259 1 22.3121 6.55396 -5.68218 0.0144691 -0.0220815 -0.00207119 
570 2 16.4567 -6.03034 1.81734 -0.0179051 0.0430723 0.0320514 
573 2 17.5424 -5.98912 3.81388 0.0447817 -0.0830738 -0.0906168 
561 1 16.5415 -6.19051 4.21258 0.0124289 -0.00820643 0.00189869 
463 2 29.4665 -6.93968 3.13473 -0.019971 -0.0812389 0.0426377 
460 2 28.2569 -6.5521 5.26729 -0.0158162 -0.131151 -0.0867094 
451 1 29.7733 -7.21088 4.17231 0.0221021 -0.0344936 0.0114066 
448 1 29.0432 -7.47677 5.39894 0.00472657 -0.0167246 0.0132843 
452 1 32.2875 -6.25163 4.82006 0.00321067 -0.0155298 0.0199941 
442 1 31.1472 -7.28798 4.66971 -0.00153901 0.0194784 -0.00459159 
558 1 16.0113 -5.65659 2.97454 0.0239613 -0.0258448 -0.0151603 
566 2 14.7061 -2.50932 0.273992 0.0178546 -0.0525833 -0.0309466 
569 2 13.652 -1.9548 2.71808 0.0807178 0.0362521 0.0348532 
557 1 14.9063 -3.11567 1.23427 -0.0115858 0.022151 0.0139066 
554 1 14.6095 -3.91076 2.2006 -0.0179786 -0.00137353 -0.0111984 
541 1 13.1224 -3.4304 4.32608 -0.0196842 -0.00194139 0.0143644 
547 1 13.1542 -2.14268 3.53783 0.00412716 -0.0198365 -0.00407153 
543 1 14.0599 -4.48594 4.45772 -0.0259403 -0.00150038 -0.00387236 
549 1 14.7531 -5.10096 3.01505 -0.00662956 -0.00463707 0.0186285 
545 1 14.3606 -5.19047 5.55849 0.0338344 0.00745746 -0.0128619 
542 1 12.1736 -3.96695 5.46429 -0.0124954 0.0155358 0.022488 
551 1 15.9609 -5.73171 5.53068 0.0128338 -0.000135514 -0.0145265 
467 2 33.7678 -4.8691 4.81947 0.034464 -0.0213048 -0.00508984 
455 1 33.4741 -5.70956 5.34878 0.0197277 0.0188311 -0.0315039 
276 1 20.4795 4.75935 0.0895093 -0.0135766 0.00613626 -0.00976886 
286 2 22.1054 3.58433 0.53506 -0.00701103 0.0856304 0.00460847 
288 2 19.5603 4.57418 0.827827 0.0144299 0.011728 0.0347288 
421 2 15.4448 -4.95702 7.62809 -0.062394 -0.00572419 0.0251287 
564 1 17.8993 -5.66562 7.02288 0.00824095 0.00163635 0.0233819 
562 1 16.3753 -5.60534 6.95773 0.0064302 0.00247635 -0.00689817 
447 1 28.3727 -8.10043 7.32822 -0.0261038 -0.00770047 0.00864929 
439 1 29.3047 -9.37596 8.84155 0.00835786 -0.0142235 -0.0052901 
445 1 28.6564 -8.06835 8.87071 0.00475811 -0.0188989 -0.0227621 
440 1 29.3029 -8.55354 6.32601 0.0116833 0.0230158 -0.000667923 
457 2 28.621 -7.63094 9.86954 -0.0470959 -0.0420248 0.0920296 
459 2 27.3597 -7.59286 6.98967 -0.000275595 -0.0377146 -0.0729981 
446 1 29.609 -10.1752 10.1661 0.00635511 0.0099292 -0.00896262 
458 2 28.8314 -10.7491 10.5755 0.00336797 0.0393506 -0.0644044 
433 1 30.5517 -9.04918 8.04114 0.00387114 0.0123189 0.00252225 
434 1 30.7519 -8.81438 6.73549 0.00623586 0.015158 0.0185777 
436 1 31.7495 -8.24901 5.74599 0.00108766 0.0119507 0.0157589 
435 1 31.8858 -8.94829 8.67652 0.0124315 0.000363326 -0.0217565 
437 1 32.9757 -8.32527 7.97494 0.00234811 0.0249331 -0.0120518 
438 1 32.8295 -7.80304 6.6539 0.0173191 -0.0325911 -0.00627075 
444 1 33.7825 -6.75312 6.55455 0.00888343 -0.01711 0.00198152 
454 1 33.669 -7.52538 8.56992 -0.00382409 0.00607723 -0.0203643 
443 1 34.0932 -7.31678 10.138 -0.00276093 0.0170777 0.0211115 
456 1 34.4225 -6.80904 7.78066 -0.00649292 -0.0166055 -0.000505392 
453 1 33.663 -8.33553 10.7213 0.0170305 0.00423917 -0.00740432 
441 1 32.0062 -9.98498 9.87782 0.00671308 0.00205555 -0.0425525 
450 1 33.1436 -9.52713 10.7928 -0.0278792 -0.00896911 -0.00368611 
468 2 35.4061 -6.25241 8.2056 0.0145939 0.0396455 0.0576731 
449 1 30.968 -10.3787 10.7549 -0.00463013 0.00300027 -0.00798146 
465 2 35.0118 -6.83692 10.5459 -0.0346622 0.0146074 -0.0375499 
576 2 18.1414 -6.67196 7.12176 -0.00300677 0.0065194 -0.0238526 
544 1 12.3354 -4.59663 6.73783 -0.0154382 -0.00933579 -0.00194307 
546 1 13.5922 -5.28442 6.86291 -0.010179 0.000441089 -0.021099 
575 2 13.8909 -5.95377 7.8268 0.0451716 -0.0768851 -0.07604 
553 1 12.3893 -1.05176 4.17051 -0.00612073 0.0104233 0.00527087 
565 2 12.2198 -0.136754 4.66132 -0.0154815 0.0443227 0.0179189 
461 2 31.1167 -10.3966 11.9242 -0.0351449 -0.0907471 -0.0347146 
462 2 32.695 -9.70291 11.8376 0.0404053 0.0117216 0.0332778 
223 1 34.2733 30.6107 -9.34422 -0.0261267 0.00839211 -0.00439832 
230 1 34.0481 29.8774 -10.6438 -0.0467716 0.0329701 0.0169081 
218 1 35.4694 30.0678 -7.23584 -0.010896 -0.00541938 0.0071103 
358 2 12.4955 30.5973 11.5122 0.0261723 0.0170886 0.00289776 
217 1 35.4531 29.935 -8.52983 -0.0111154 0.00479163 0.00630048 
243 2 32.6673 32.3856 -6.92661 -0.0496941 -0.0430044 0.0648252 
231 1 33.5085 31.7373 -7.16834 -0.00614072 -0.00508019 -0.0222905 
224 1 34.356 30.9136 -6.4378 -0.000612303 0.00439253 -0.0147767 
229 1 33.3048 31.0994 -8.45402 -0.00234147 0.0365451 0.0106331 
241 2 32.4203 31.1637 -9.47085 0.0120795 -0.0051785 -0.0794888 
284 2 18.9503 33.6292 -0.267297 0.0120545 0.0271995 0.0348921 
210 2 19.0017 34.03 0.468677 -0.178882 0.0485268 -0.0186345 
244 2 33.5546 31.9278 -5.11633 -0.0188959 0.00653566 0.0383512 
232 1 34.4829 31.4951 -5.23676 0.0146937 -0.0163218 0.00616154 
233 1 35.0587 28.7909 -10.924 -0.0132996 -0.00336783 0.00718076 
235 1 35.4227 30.6931 -4.58269 0.0187128 -0.015177 0.0166699 
360 2 13.8649 28.3604 11.1727 -0.0533093 -0.0219453 0.0570654 
348 1 14.211 29.217 11.673 -0.000216792 0.0096444 -0.008416 
359 2 15.9249 27.257 11.2334 -0.0202541 -0.026062 0.0165559 
346 1 13.5583 30.5188 11.9623 3.90857e-05 0.0014181 0.000954862 
242 2 33.0312 29.9479 -11.3568 0.0639664 0.0220589 0.00610647 
247 2 35.128 30.9627 -3.52644 -0.0324496 0.0325319 -0.0201711 
356 2 18.2451 26.7608 11.9183 -0.00186622 -0.0171865 0.0982636 
245 2 34.9217 27.8041 -11.4666 0.022986 -0.0333653 -0.00809366 
326 1 17.8692 30.661 14.5227 -0.00929996 -0.0207523 -0.0115681 
344 1 17.7082 27.5914 12.103 -0.00336145 -0.0125549 0.000108869 
328 1 17.5198 29.8066 13.4643 0.00331813 -0.00954928 0.0107615 
334 1 17.9635 28.4328 13.2201 -0.00666909 -0.0172754 -0.00853198 
343 1 18.9026 27.6034 14.1884 -0.00133855 0.0235823 0.00478578 
340 1 19.5041 28.7863 14.7661 0.0348165 -0.0162416 -0.00266413 
341 1 15.7914 33.9501 15.9441 -0.0190284 -0.016829 0.00591657 
216 2 12.1769 32.7365 13.7154 -0.00364283 -0.0314401 -0.00774051 
327 1 16.0703 32.0194 14.1916 -0.0075024 0.00414389 -0.00170892 
354 2 13.134 33.5435 15.8013 0.0326302 0.0102973 0.00856391 
333 1 15.1855 32.9938 15.0821 -0.0214876 -0.00602708 -0.00844992 
330 1 16.2362 30.0562 12.9365 -0.0112165 -0.00407745 -0.0144532 
342 1 13.7153 32.779 14.9865 -0.018016 0.0155022 0.00547491 
335 1 14.1638 31.576 12.958 -0.0225008 0.0158967 0.0226238 
345 1 13.2615 32.3499 13.754 0.0155742 -0.0134668 0.0113481 
329 1 15.5165 31.0819 13.5432 0.00313594 -0.00506868 0.0177979 
338 1 17.1339 33.7022 16.5287 -0.020284 -0.0205649 0.0178232 
350 2 17.6165 34.3642 17.1605 0.0184409 -0.114735 -0.00610099 
325 1 17.2477 31.7405 14.8362 -0.00219903 0.0160788 0.0096151 
332 1 19.2183 30.1994 14.8655 0.0122431 -0.00592133 0.010907 
339 1 20.1293 31.2454 15.5204 0.00278928 -0.0235356 0.00465383 
353 2 15.1288 34.2082 16.866 -0.0675284 0.0357578 -0.111397 
331 1 17.9393 32.7996 15.704 -0.0209965 0.00373893 -0.0189284 
349 2 19.3853 32.7416 17.1365 -0.0414573 -0.0618301 0.0725958 
351 2 21.2939 31.2781 15.5003 0.00413879 0.0105301 -0.0047952 
337 1 19.2231 32.2737 16.1538 -0.0189021 -0.00220754 0.00189584 
336 1 15.6241 29.1402 12.1458 0.00976277 0.00785692 0.0160544 
347 1 16.2738 27.8002 12.1732 -0.00933833 0.005119 -0.00172516 
144 2 45.4834 10.4439 -11.7716 -0.00619157 0.0522027 -0.00974356 
394 2 45.3428 10.8661 -10.6227 -0.0266171 -0.00894162 0.00275352 
248 2 51.8178 1.76882 -0.918066 0.0246319 -0.0303997 -0.0353319 
176 2 51.4964 2.66129 -1.05516 0.0430174 -0.000692022 0.0316633 
140 2 57.3092 8.22069 23.7521 0.0447382 -0.0260909 0.058088 
128 1 58.0455 9.04967 23.1872 0.0188144 -0.0144851 0.0297876 
118 1 58.7181 10.0758 24.0993 -0.000582675 0.0305507 0.00623186 
143 2 57.1695 8.72318 21.048 0.0136525 0.0229532 -0.00124208 
131 1 58.0236 9.30425 21.7877 -0.0253333 0.0103929 0.015268 
120 1 58.6228 10.3457 21.3049 0.00708487 0.0218826 -0.0203793 
132 1 58.477 10.2503 19.8309 0.00748888 0.0134876 0.00326738 
130 1 59.3322 11.2667 19.1099 -0.0374872 -0.0122446 -0.0218422 
528 1 46.8699 7.67966 28.5998 0.023365 -0.00252998 0.0117087 
510 1 47.5636 9.46193 27.0115 -0.00610166 0.0245257 0.00021022 
516 1 47.6566 8.06162 27.3087 0.0143231 0.0181145 0.00993665 
526 1 45.8119 8.35859 29.4275 -0.00332978 -0.0293317 0.0137779 
538 2 45.8474 8.07115 30.4087 -0.00104448 0.0116158 0.0859112 
515 1 45.6937 9.86674 29.016 0.00539367 -0.0193006 0.00800107 
509 1 46.9448 10.16 28.1016 0.017566 -0.00474981 0.0106995 
525 1 45.3091 10.9125 29.8775 0.0273887 0.00351742 0.0131331 
534 2 44.5178 10.9123 30.5583 -0.103954 0.086256 0.0234092 
507 1 47.2231 11.4449 28.6294 0.00129602 -0.0121931 0.0150539 
505 1 48.663 11.614 28.3003 0.00164095 0.0216712 -0.00641101 
524 1 49.4661 8.12812 25.4974 -0.0129548 0.0107891 0.0102962 
536 2 49.2188 7.96248 24.4883 -0.0697971 0.0432522 -0.00963961 
535 2 51.5287 9.79422 24.6525 -0.0447454 -0.0291319 0.0179878 
527 1 48.8141 7.48052 26.6054 -0.00376102 -0.00799808 0.00410992 
514 1 49.5647 9.63397 25.5579 -0.00437611 -0.00152721 0.0238392 
508 1 48.6229 10.3052 26.4758 -0.024773 -0.00797586 0.00228343 
506 1 49.2083 11.3566 27.0396 0.0292047 -0.0300292 0.0204429 
523 1 50.7587 10.3523 25.2847 -0.0176004 0.00484017 0.0199534 
127 1 59.1319 9.53498 25.502 0.00737797 0.022644 0.00910682 
139 2 58.8995 8.38599 25.7251 0.0660333 0.0944733 -0.0359011 
124 1 59.2967 10.8352 26.1928 -0.00274208 0.011593 0.00615431 
520 1 51.1375 11.7671 25.7528 0.0272586 -0.00498854 0.01661 
114 1 59.733 11.204 21.9516 -0.0340273 -0.0084516 0.0162853 
112 1 59.8246 11.0032 23.3395 -0.0263152 0.000118148 0.0290341 
69 2 59.6844 -6.95638 21.533 -0.0842222 0.00200142 -0.00263393 
142 2 59.0147 11.4392 18.1412 -0.0859262 -0.183388 0.0220206 
219 1 36.6501 29.6231 -9.31662 0.0134477 0.00388862 -0.0163616 
222 1 37.842 29.3228 -7.36323 0.000288341 0.0103267 0.0245115 
221 1 37.9039 29.6346 -8.6537 -0.0278765 0.000739297 -0.012212 
227 1 39.1172 29.3651 -9.58059 -0.0139997 -0.0150946 -0.0163104 
225 1 36.3929 29.2484 -10.5677 0.020214 -0.0122571 -0.0065259 
234 1 37.6505 28.9869 -11.5121 -0.0016541 -0.000534383 0.00933834 
237 1 38.8309 29.3622 -11.0857 -0.0125805 0.00591307 -0.0190152 
238 1 40.2012 29.491 -8.72206 0.020881 0.00325891 0.0050714 
471 1 54.2315 23.2599 11.4951 0.00433157 0.0013194 -0.001621 
249 2 39.7067 29.6404 -11.8201 -0.0286566 -0.0136241 -0.149896 
240 1 40.2573 29.026 -7.20347 -0.0124808 0.000176579 0.000531187 
252 2 40.5218 27.9266 -7.1849 -0.0277803 0.138732 -0.0510683 
357 2 41.0629 29.798 -7.19039 -0.0583339 0.0220092 0.0741231 
228 1 38.8781 29.0265 -6.39139 -0.0131689 0.00156263 -0.00367519 
220 1 36.6962 29.7746 -6.58323 0.0108431 0.00513889 0.00308377 
236 1 39.0059 30.1537 -5.44127 -0.00426801 0.0142853 0.0104872 
239 1 37.9755 30.8398 -4.71638 0.0165987 0.0165294 -0.000896159 
251 2 38.1811 31.9677 -4.76357 0.0307173 -0.0193653 0.0175126 
226 1 36.7532 30.161 -5.06337 0.00468924 0.00645083 0.00564642 
352 2 58.6285 16.3946 -5.26963 0.104818 -0.0144973 -0.0929662 
574 2 58.3772 16.8677 -5.90523 0.0461255 0.0265451 -0.0230263 
473 1 57.8136 22.7384 10.5743 0.00767435 0.00122989 -0.015557 
475 1 51.7753 22.9503 11.0986 -0.0272534 0.00810299 -0.031896 
108 2 50.9724 22.7025 10.32 0.00832387 0.00880194 -0.0980104 
481 1 53.5859 23.0383 9.20267 -0.0133496 0.00620776 0.0144104 
469 1 53.0047 22.9731 10.5424 0.000682076 0.0174921 -0.0241196 
483 1 52.698 23.8148 8.50737 -0.000896963 0.000312185 0.0194785 
493 2 51.885 24.3771 8.62825 -0.0161554 0.0598286 -0.0481787 
479 1 55.5298 23.0724 11.1732 0.0149832 -0.0258873 -0.0128426 
480 1 59.1218 22.9282 10.9145 -0.000570237 -0.0066398 0.0112349 
476 1 55.0254 22.7576 8.73837 -0.0115534 0.0121245 0.00662261 
470 1 55.9595 22.9698 9.7385 0.00141959 0.00972483 0.0109383 
484 1 55.3742 23.0044 7.22966 0.00633263 0.0232182 0.00875776 
503 2 58.5371 21.7288 7.76201 -0.0218711 0.0453929 0.0477068 
478 1 57.6581 22.0517 7.89375 -0.0287628 0.0194772 -0.0396565 
487 1 56.5004 22.3455 7.1969 0.0239374 0.0101139 -5.82757e-05 
472 1 57.3254 22.6256 9.24371 -0.00131894 0.00622302 -0.0207851 
499 2 55.0199 23.1536 6.20175 0.0625678 0.0341092 -0.034194 
474 1 56.7352 22.7919 11.8542 0.0252235 0.00307108 0.00988696 
477 1 53.7141 23.1634 12.8364 0.0269258 -0.0265105 0.00546782 
500 2 53.773 22.275 15.1344 0.0830287 -0.0147014 0.0372184 
491 1 54.6371 22.8362 15.1165 0.0136699 -0.0165519 0.0109241 
494 2 50.3062 22.9474 13.0252 -0.0271127 -0.086174 -0.0295536 
497 2 56.9663 22.4879 12.848 -0.0521076 -0.0603504 0.0530496 
163 1 45.0241 32.227 32.1848 -0.000747025 0.00188955 -0.00163767 
482 1 51.336 22.8761 12.5208 0.0233891 -0.000533138 -0.0083209 
498 2 52.1904 22.6916 14.3819 0.0868153 -0.100261 0.0838771 
485 1 52.3856 22.841 13.3283 -0.00904293 -0.0122433 -0.00308703 
501 2 55.7759 23.8223 13.6907 0.0800481 0.132233 -0.0411142 
488 1 54.9628 23.2035 13.7327 -0.0227231 -0.000653302 -0.00920342 
518 1 47.7784 13.8815 29.0781 0.00977921 0.0154232 -0.0144293 
513 1 46.0487 13.0549 30.606 0.00908876 0.0107475 0.0205394 
496 2 59.8089 15.4492 26.2612 0.0458128 0.0390611 -0.0115043 
529 2 50.6396 14.2325 29.2518 0.0253479 -0.0531213 0.106495 
511 1 48.7806 13.1638 28.2729 -0.0155918 0.00804501 0.00264071 
517 1 50.1692 13.5555 28.4037 -0.0103572 0.00594623 -0.00423116 
512 1 50.497 12.1645 26.6138 0.0195569 -0.0163446 -0.00370156 
159 1 48.0924 30.223 33.0948 -0.00212745 -0.0221565 -0.0189745 
532 2 51.826 12.4818 25.191 0.0452763 -0.0213885 -0.0297006 
519 1 51.1432 12.7499 27.7383 0.0128359 -0.00235829 0.0151336 
531 2 51.97 13.4782 27.4553 0.0107935 0.00854418 0.0271169 
178 2 40.9058 27.504 29.8062 -0.0336152 0.000101935 0.0302393 
168 1 42.0031 27.3831 30.0005 -0.0136281 -0.0230859 -0.00182246 
166 1 42.9769 26.5356 29.3392 -0.00020246 -0.0051132 -0.000208763 
521 1 47.091 14.112 30.3056 0.0315091 0.00659576 -0.0112988 
530 2 46.9916 14.6906 31.1836 0.040676 -0.0456743 -0.0477154 
533 2 45.1638 13.2378 31.3431 0.069056 -0.027057 -0.0276275 
165 1 44.4495 24.6816 30.4532 0.00158058 0.0191744 -0.00860258 
180 2 41.6003 28.6775 31.3419 0.00832322 0.0464426 0.0112451 
169 2 48.7931 31.0897 33.221 -0.00818739 0.061776 0.00329636 
246 2 37.3078 28.9677 35.5671 -0.0207676 0.0276002 0.0826161 
174 2 43.4205 24.5177 30.5138 -0.0691699 -0.00411612 -0.0847909 
156 1 42.7079 28.4316 30.6234 -0.00226711 -0.0189035 -0.0103314 
155 1 44.2906 27.1623 28.878 0.0167797 -0.00224759 -0.0138034 
150 1 44.0844 28.9698 30.7152 0.0236201 0.0126772 0.00208896 
148 1 44.7389 30.0646 31.471 0.0133313 0.0248686 -0.00663805 
149 1 44.945 27.9319 29.8774 0.0274256 0.00470232 -0.00199677 
162 1 45.4252 25.0613 30.5222 -0.00492603 -0.0261333 -0.00701687 
147 1 45.9077 27.3636 30.6375 0.0441951 -0.0108718 -0.00834512 
146 1 45.9291 29.4593 32.1677 -0.0167745 -0.0117644 -0.0204545 
145 1 46.1125 28.1169 32.0007 0.00101434 0.0137323 -0.00463634 
173 2 47.2618 24.495 32.4906 -0.0251954 0.0203599 -0.105077 
161 1 47.2716 25.6176 31.884 -0.00348287 0.0202072 -0.0174235 
158 1 47.9176 26.5936 32.8837 0.0118201 0.00643827 0.0319841 
153 1 46.5721 26.0687 30.8359 -0.0263009 0.0100969 -0.003946 
151 1 47.5584 27.9272 32.4764 -0.0068334 0.00921823 -0.00753577 
157 1 48.5711 28.9877 32.6438 0.0243251 0.0110189 0.0165676 
171 2 49.7171 28.983 32.6691 0.0155798 0.06237 0.00201193 
170 2 48.7819 26.7014 33.3367 0.0392795 0.0568386 -0.045003 
167 1 41.504 31.8837 31.699 0.00358038 0.0155777 0.00805726 
164 1 42.7699 31.6387 31.9657 0.0270956 8.85963e-05 -0.0170408 
154 1 43.9313 31.0665 32.0318 0.0200968 -0.00535074 -0.00338964 
175 2 44.3938 33.0463 32.5838 0.0444447 -0.00265797 -0.039515 
172 2 47.0242 32.423 33.4011 -0.0154836 -0.0352654 0.0260924 
160 1 46.198 31.9404 32.8545 -0.0068179 -0.00890922 -0.0165366 
152 1 46.8296 30.5339 32.7616 -0.000407991 -0.00400147 0.00277725 
123 1 59.3693 13.4485 25.8605 -0.023721 -0.0106791 0.00226694 
119 1 59.594 12.5007 19.7802 -0.0051789 -0.0398829 0.0121237 
116 1 59.2326 12.1656 25.4556 0.000218111 0.0202391 0.000971178 
113 1 59.8101 12.3962 21.2265 -0.00538761 0.00483921 -0.00788178 
282 2 59.5093 22.4409 27.4478 -0.144011 0.0842845 -0.0779412 
121 1 59.7319 14.5884 25.5718 -0.025261 -0.0200668 0.0158683 
135 2 59.0675 22.8972 28.038 -0.0121529 0.0119616 0.0300493 
522 1 46.1889 12.114 29.5208 -0.00268661 0.00557206 -0.0328869 
379 1 76.9667 -11.5318 -11.3357 0.021538 0.00242575 -0.021249 
391 2 75.9737 -11.3785 -10.8578 0.104624 0.00685427 0.0318778 
22 1 76.5709 4.90058 7.5454 0.000595051 0.0200852 -0.035887 
198 1 68.9714 3.84293 -10.86 -0.00538741 -0.0491818 -0.0250626 
189 1 70.119 3.18778 -10.3094 -0.00578098 0.023117 0.0240448 
183 1 71.3427 3.63797 -11.0212 0.00423074 -0.0022948 0.00976479 
209 2 68.8691 1.07494 -10.0503 0.0207347 -0.0471267 -0.0106084 
197 1 69.8431 1.69874 -10.1758 -0.0189964 -0.0108462 0.02378 
206 2 70.7316 0.479545 -8.50026 -0.08015 -0.0698792 -0.0892787 
194 1 70.8506 1.30661 -9.19078 0.00289698 -0.0129882 -0.0131316 
201 1 69.3708 4.73456 -11.8747 -0.0172711 0.00435549 0.00217617 
133 2 67.9883 3.47362 -10.8887 -0.000929724 0.0493203 -0.0182604 
187 1 72.2642 1.86571 -9.50901 0.00135811 -0.00940546 0.00550746 
205 2 72.5777 0.646602 -7.83811 -0.0585954 0.00601306 0.0473813 
193 1 73.0389 1.4127 -8.52129 0.000758743 0.0188375 -0.0133961 
207 2 75.0804 0.623754 -8.94597 0.0605885 0.0934784 -0.0572693 
195 1 74.2471 1.40218 -9.2878 -0.0114927 0.0165743 -0.017089 
181 1 72.3964 2.9011 -10.4597 -0.0017125 0.0164727 -0.00197929 
188 1 74.5415 2.63117 -9.88528 0.0216153 0.0013448 0.0285511 
182 1 73.7206 3.40483 -10.7424 0.0109843 -0.00694696 -0.0555038 
196 1 75.9875 2.85104 -9.96737 -0.0170715 0.0068698 0.00952077 
199 1 76.4094 3.55779 -11.1896 0.00665495 -0.0277317 -0.00335901 
21 1 77.0302 7.04207 6.0442 0.0177225 0.013895 0.0094298 
208 2 76.5263 2.20588 -9.33284 -0.00440449 -0.00982124 0.0672453 
184 1 73.9486 4.52938 -11.6416 -7.30744e-05 -0.00848696 0.0251522 
211 2 77.3704 3.44481 -11.1719 0.0578977 0.0152417 0.0327389 
27 2 78.358 1.4517 -0.291725 -0.124033 -0.00249231 0.054181 
28 2 76.4111 -0.137354 0.402596 0.0548246 0.146567 0.0238934 
16 1 76.3832 -0.331843 1.56918 -0.00228471 0.0202686 -0.0118174 
32 2 74.0681 -0.00964952 4.37215 -0.045954 0.0725649 0.081936 
31 2 75.798 -1.2165 2.08086 0.116389 0.0212123 0.0707236 
20 1 74.8412 0.930256 4.56581 0.00204891 -0.000814464 0.00107111 
35 2 73.4912 2.55476 5.11526 -0.00348841 -0.0487828 -0.0353138 
23 1 74.4367 2.11604 5.2945 -0.00504928 -0.0175664 0.0224694 
19 1 76.5048 1.04558 2.23929 0.000781753 -0.00304552 -0.00674829 
10 1 76.1046 1.30229 3.79788 0.0141013 0.00380684 -0.000473477 
12 1 75.5161 2.94471 6.23751 0.0162191 0.0142181 0.0300926 
4 1 76.5414 2.43901 4.07938 -0.00580763 -0.0188698 0.0198929 
8 1 77.4584 1.97084 1.65595 -0.0106182 -0.0139391 -0.00624897 
6 1 76.3854 3.35699 5.26359 0.014714 -0.0128023 -0.0015568 
5 1 77.4829 4.51062 5.4191 0.0102203 0.000886784 0.00891309 
3 1 77.7961 4.92895 4.01198 0.0036837 -0.00172826 0.0177273 
1 1 77.906 4.37308 2.73569 -0.0103171 0.00603723 0.0171002 
2 1 77.1788 3.00131 2.84733 -0.00939542 0.00371045 0.0235097 
25 2 79.5844 4.07219 0.0677055 0.106909 0.0932198 -0.0414745 
26 2 79.4637 5.1883 1.59106 -0.0221722 -0.0359552 -0.0673606 
7 1 78.8526 4.38392 1.73351 0.00508167 -0.0119913 -0.0188603 
13 1 79.0218 3.45625 0.639069 -0.000682946 0.0033902 0.0101614 
15 1 78.2584 2.24922 0.476939 -0.0107104 -0.0040812 0.0081286 
9 1 78.3432 6.4165 3.84791 -0.0100915 0.0239529 -0.0091735 
30 2 77.8512 8.53664 4.34951 -0.0751961 -0.0151964 0.000484815 
18 1 77.8033 7.50605 4.63246 0.0300779 0.0192963 0.00991302 
105 2 66.0453 1.43074 7.8751 0.0652093 0.0677681 -0.143607 
466 2 65.1325 1.58381 7.47024 -0.00742745 0.0180243 0.12463 
34 2 76.3277 5.6326 8.43438 -0.0435539 0.0106276 -0.0280035 
36 2 74.719 2.88533 8.10443 0.0452887 0.0130826 0.00351051 
24 1 75.6506 3.69693 7.45781 -0.0112039 0.0408958 0.012264 
11 1 76.8894 5.62769 6.42666 0.00724475 -0.00946196 -0.0106839 
214 2 72.8232 8.76339 -10.8188 0.00309349 0.0322036 -0.0496073 
190 1 75.3897 4.4303 -11.8062 0.00481238 -0.014908 0.00248801 
202 1 72.5516 8.29943 -11.7436 0.0290049 0.00180692 -0.00158333 
213 2 70.4223 6.37703 -11.8206 0.0511035 -0.0599699 0.0238771 
204 1 73.4117 7.47798 35.5404 0.0210529 -0.0149919 0.00576562 
54 1 60.6127 -7.39728 21.0444 -0.00800324 0.00625615 0.00490412 
191 1 70.4723 5.36006 35.5499 -0.0150691 -0.00956727 0.00578133 
57 1 61.6864 -6.98117 21.1862 -0.0163741 0.016695 -0.024442 
66 2 63.7409 -6.94588 20.5349 -0.00556485 -0.137249 0.04474 
47 1 62.9975 -6.59098 21.2041 -0.000790852 0.000628638 0.0298218 
315 2 77.0579 -8.30681 24.2528 -0.0161972 -0.0296224 0.0715768 
304 1 79.4966 -7.32126 23.8575 0.00178248 0.0057692 0.0381639 
319 2 79.325 -6.65861 23.0709 0.00753002 0.116625 -0.0620021 
72 2 61.6203 -1.67257 18.9633 0.0850949 -0.0473382 0.0288783 
56 1 62.5416 -1.9485 19.4111 -0.0167501 -0.0134591 -0.0231144 
70 2 61.284 -4.48448 19.851 0.135041 -0.0248024 -0.0167789 
59 1 63.3998 -0.993965 19.9504 0.0140362 -0.014161 -0.000244864 
60 1 61.9017 -4.05108 20.5956 -0.0302775 0.000307966 0.0110435 
58 1 62.7705 -5.03316 21.1952 -0.0114226 -0.0127931 -0.0147419 
48 1 62.5778 -2.80713 20.6122 -0.0270826 0.00245982 0.00895562 
42 1 63.9175 -3.23565 21.1035 0.0127031 -0.0122811 0.013577 
41 1 63.9576 -4.36491 21.6296 0.0172574 -0.0051071 -0.00899537 
39 1 65.1227 -4.79387 22.4558 0.00808115 -0.00712074 -0.012321 
37 1 65.7935 -3.63035 22.9475 0.0363567 -0.00661232 0.00864342 
40 1 64.3187 -2.02501 21.763 8.39541e-06 -0.00719359 -0.0065406 
38 1 65.3295 -2.40342 22.5924 -0.0230272 -0.0254008 0.0303152 
46 1 64.0407 -0.694943 21.1547 0.0141881 0.00921279 0.0140357 
44 1 66.5826 -1.50406 22.9378 -0.0271408 0.00844211 0.0333377 
63 2 68.0178 -0.328945 23.1099 0.0468924 0.0115594 -0.0361468 
51 1 66.9288 -0.0532407 22.753 -0.00582847 0.00988107 0.00811638 
49 1 66.9471 -2.18828 24.0887 -0.0108414 0.00843734 0.00877438 
61 2 67.73 -1.99734 24.5733 0.116614 0.0427971 -0.0246988 
307 1 80.9806 -7.18315 24.4056 -0.00972159 -0.00718876 -0.0032886 
68 2 63.4313 -0.219408 19.3114 -0.0649159 -0.00172931 -0.00710601 
67 2 64.8347 1.42139 20.3938 0.0341125 0.100007 0.141179 
55 1 64.8936 0.532648 21.0973 0.00987096 -0.00325938 0.000937208 
52 1 65.8934 0.890386 22.104 -0.00917966 0.0178579 -0.00861737 
392 2 75.9319 -9.32753 36.0244 -0.0272962 -0.0256897 0.0573185 
203 1 74.8961 6.17719 34.4107 -0.00391849 -0.00116763 0.0194141 
192 1 73.511 6.17098 34.9635 0.00771239 0.0177558 -0.0181342 
297 1 77.5366 -5.70822 29.8257 0.0197954 0.026327 0.000144164 
305 1 76.3396 -6.58663 29.6915 0.00356436 0.00665905 -0.026803 
313 2 75.8943 -8.15669 26.3051 0.011955 0.0437172 0.0999005 
295 1 76.5139 -6.29235 27.2529 -0.0197108 -0.00720108 0.0177948 
301 1 76.4828 -7.38791 26.3883 0.0263157 -0.0186264 0.0105314 
316 2 79.2936 -8.45996 23.3663 0.0487808 -0.026561 0.0250441 
303 1 77.3675 -8.00338 25.2727 -0.0151293 0.0216947 0.00804075 
296 1 78.5146 -7.14726 25.0857 -0.0188847 0.00826001 -0.00848785 
289 1 78.0144 -5.87955 27.3084 -0.00662795 -0.00336296 0.0208993 
291 1 78.5303 -5.78465 28.645 -0.00444569 0.00796709 -0.0106656 
290 1 78.8839 -6.23649 26.208 0.0130874 -0.00669263 -0.0380059 
292 1 80.2956 -5.87511 26.3474 -0.000644376 0.00302898 0.00976242 
62 2 64.1732 -6.477 23.8466 0.0368228 0.0234699 0.00295984 
45 1 64.9671 -5.70364 23.7222 -0.000716975 -0.0200489 -0.0141164 
53 1 65.8946 -6.19272 24.6873 0.0252567 -0.0092259 -0.0105152 
50 1 66.5855 -4.91038 24.7435 -0.000957974 0.00392191 -0.00870472 
65 2 66.0354 -7.03998 25.5979 0.0691407 -0.00197036 0.0229983 
43 1 66.4382 -3.46905 24.296 0.0180401 -0.00455445 -0.0112635 
314 2 74.8168 -7.21068 27.7848 0.0195251 -0.00144484 -0.00551985 
302 1 75.671 -6.74367 28.414 -0.0283761 -0.0181065 0.027441 
310 1 81.0502 -5.72037 29.8581 0.00178985 -0.026521 -0.0263033 
212 2 76.4207 4.94531 34.2827 -0.0214848 0.044651 0.0434683 
312 1 83.1641 -4.21144 28.6809 -0.00321077 -0.000603876 0.00409067 
321 2 82.7595 -4.08576 29.634 -0.0080056 -0.0765407 0.0237812 
300 1 82.4053 -4.71652 27.6934 0.00372028 -0.0346102 -0.00700796 
293 1 80.1327 -5.59542 28.7981 0.00217196 0.00360057 -0.0156849 
294 1 80.7821 -5.14924 27.6067 0.00536083 0.00320821 0.028236 
298 1 81.424 -6.45391 25.5973 0.011127 -0.0187529 0.0218252 
311 1 82.7846 -4.71338 26.2406 0.0113256 -0.0137602 -0.00312961 
308 1 82.754 -5.98707 25.5653 -0.00886066 -0.00619128 0.0123693 