ITEM: TIMESTEP
950000
ITEM: NUMBER OF ATOMS
576
ITEM: BOX BOUNDS pp pp pp
-1.2000000000000000e+01 8.4000000000000000e+01
-1.2000000000000000e+01 3.6000000000000000e+01
-1.2000000000000000e+01 3.6000000000000000e+01
ITEM: ATOMS id type x y z vx vy vz 
90 1 -7.14282 -8.04317 -7.40148 -0.00480158 0.0225502 -0.00949993 
93 1 -6.24655 -8.98723 -6.71913 0.00974401 -0.0227288 -0.00851505 
81 1 -6.9824 -6.60087 -6.90435 0.0148791 0.00343758 0.00915785 
89 1 -8.13303 -5.6635 -7.4204 0.0271661 -0.0189207 0.0101467 
102 2 -5.01752 -9.89108 -4.92795 -0.00951358 -0.043482 -0.0419546 
135 2 4.7418 3.24024 -5.32491 -0.0800898 0.0517353 -0.0603554 
282 2 4.65233 4.12983 -5.2966 -0.010102 0.114257 -0.0441982 
83 1 -4.94919 -8.29569 -6.11101 0.0265763 0.0182134 0.00143341 
101 2 -9.90092 -4.95623 -6.41325 0.035772 0.0114793 -0.0140264 
86 1 -8.83405 -4.88234 -6.46805 0.00971985 0.0093154 -0.00594916 
75 1 -6.29184 -6.2442 -5.84513 0.00555516 0.001925 -0.00134316 
106 2 -2.18844 -9.22132 -4.16497 0.0913196 -0.0133586 -0.0339444 
96 1 -3.14314 -8.5177 -4.3813 -0.0232993 -0.00526234 -0.0050922 
84 1 -3.72531 -7.71001 -3.46965 -0.0322234 0.0106177 -0.0062606 
78 1 -4.82245 -6.75948 -3.89951 0.000704481 -0.00651402 0.0316211 
77 1 -5.3473 -7.13267 -5.22225 -0.0200308 -0.0018287 0.00945377 
94 1 -4.32679 -9.08097 -5.13991 -0.0318358 0.00924345 -0.0133381 
107 2 -2.43623 -8.4925 -1.47356 0.0198239 -0.0048209 -0.0931481 
95 1 -3.17729 -7.93818 -2.08173 -0.0252786 -0.00202139 -0.0124094 
92 1 -3.77781 -6.95365 -1.29007 0.0126396 0.00192078 0.026348 
97 2 -8.01455 -3.42828 -4.77691 -0.0912486 0.0437744 -0.018434 
79 1 -7.99612 -4.18995 -5.50348 -0.0160917 0.0203127 0.00299892 
73 1 -6.88064 -5.15078 -4.86873 0.0131037 -0.0088984 -0.00604695 
355 2 -6.91294 -4.05119 -3.48413 0.0226711 -0.00265202 -0.0199325 
103 2 -5.22317 -5.23727 1.05142 0.0222896 -0.0481208 0.0741265 
104 2 -4.2625 -7.35853 -0.0273229 -0.0353124 0.05796 0.0297806 
88 1 -4.5203 -4.4883 0.440947 -0.0132263 -0.0114525 -0.00845018 
91 1 -4.54237 -4.77379 -0.513219 0.00683944 -0.0110064 0.0019982 
76 1 -5.1781 -5.71751 -2.93178 0.017996 0.0135139 0.0193046 
82 1 -4.72297 -5.8809 -1.78741 -0.0262265 -0.0205376 0.00212774 
74 1 -6.16727 -4.83998 -3.88997 -0.00705722 -0.00905694 0.00455653 
424 2 -9.97196 11.6615 -11.6439 0.0465445 -0.101051 -0.0530259 
404 1 -11.6195 11.1101 35.3088 0.00645047 0.0110628 0.0131979 
482 1 -3.22396 10.926 25.5069 -0.0170764 -0.0161357 0.000526406 
494 2 -3.26454 8.62258 25.6245 -0.0373949 0.0700391 -0.0508812 
100 2 -3.24677 7.49549 20.5871 -0.0690821 -0.0572392 -0.0225677 
85 1 -3.51499 8.51504 21.069 0.0208757 -0.00613423 -0.002504 
352 2 2.46789 2.32567 22.5367 0.0385039 0.132432 -0.0770464 
574 2 3.2235 2.65105 21.9072 0.0942182 -0.0966038 0.00159085 
475 1 -3.50148 9.54817 25.0381 -0.0084978 -0.016027 0.00534957 
87 1 -4.01563 9.49016 23.5464 0.0226425 -0.00672692 -0.0205806 
398 1 -11.5833 11.38 33.8792 -0.00880167 -0.00955136 -0.0048003 
417 1 -7.09363 10.8636 27.0579 0.0123435 0.00255041 -0.0253212 
429 2 -6.37158 10.0245 26.8978 0.111342 0.0110516 0.0873759 
80 1 -3.15155 8.73994 22.4814 0.0272983 -0.0270131 -0.0203147 
99 2 -4.91139 9.50923 23.4785 -0.0183562 -0.125098 -0.0576331 
231 1 -5.09835 13.3464 -10.4265 0.035109 0.0185342 0.00116298 
243 2 -5.14546 12.8355 -9.52432 -0.0152995 -0.0643671 0.059123 
572 2 7.1 29.0552 -10.4886 0.0341155 0.0420511 -0.0462572 
244 2 -3.35109 13.2496 -8.82378 -0.12481 0.0675608 0.034652 
232 1 -2.89438 13.7448 -9.55312 0.000213228 -0.00325562 -0.00282257 
239 1 0.0961594 15.5434 -10.2953 0.00697387 -0.0109672 -0.0187507 
235 1 -1.6676 14.4261 -9.39989 -0.00156098 -0.00527798 -0.0301696 
247 2 -0.97491 14.2697 -8.5662 -0.00870851 0.00412886 -0.0124882 
226 1 -1.35596 15.3887 -10.3649 -0.0118556 -0.00682293 0.00798659 
224 1 -3.79275 13.9499 -10.576 0.0389885 0.00249861 0.0138979 
220 1 -2.24284 15.6662 -11.3387 -0.010558 -0.0477041 0.062036 
552 1 7.84705 27.6646 -11.3053 0.0136423 -0.0165142 -0.0322485 
218 1 -3.40257 14.9442 -11.6755 0.0161073 -0.0087871 -0.00533746 
236 1 0.347658 16.456 -11.2421 0.00597607 0.0383996 -0.0201632 
251 2 0.720407 15.1298 -9.23927 -0.059188 0.0743968 -0.0553035 
177 2 7.61631 28.1071 -8.87035 0.0472237 -0.037191 -0.0172783 
563 1 7.38674 27.971 -9.91286 0.00474245 0.00591599 -0.00708129 
229 1 -6.1563 13.8276 -11.3076 0.0274119 0.0159536 -0.00543809 
388 2 1.60554 16.5862 -11.1276 0.12624 0.0950048 0.0997017 
241 2 -7.07021 13.3632 -11.2309 -0.0619486 -0.035794 0.0595892 
105 2 -1.1719 35.2224 -9.41867 -0.0664798 -0.0749522 -0.0192589 
466 2 -1.44217 34.7315 -8.94982 0.054807 -0.0508785 -0.00320149 
428 2 -10.4355 16.0604 -11.8606 0.0277964 -0.0452002 0.0028171 
412 1 -10.7486 12.0767 35.7635 -0.0275809 0.0122242 -0.0144334 
532 2 10.3489 25.3673 35.3732 -0.00354577 0.031969 0.159986 
492 1 -11.5925 24.6254 14.9163 -0.0148636 -0.00708786 -0.00892994 
500 2 -10.3496 30.2843 13.4513 0.0495461 0.0837106 0.0822659 
407 1 -7.24313 12.2082 27.127 -0.00654143 -0.00437693 0.00454767 
491 1 -10.9495 30.2898 14.4661 0.01026 -0.00166504 0.00139762 
33 2 -9.4662 25.8606 15.2368 -0.150661 0.0225717 0.0222011 
287 2 -9.33268 26.0345 14.8844 0.0406641 0.011422 -0.0121557 
488 1 -10.3047 31.0864 15.6077 -0.0113669 -0.00875356 -0.0254602 
501 2 -9.41439 31.988 15.1977 0.0886305 0.0296685 -0.0156938 
477 1 -10.7612 31.0124 17.0123 -0.0129364 -0.0111351 -0.00357393 
228 1 -0.447383 16.8155 35.5932 0.003177 0.0167563 -0.021983 
405 1 -7.96462 14.3152 26.9573 0.00322808 -0.0164653 0.00863605 
136 2 -7.58184 16.158 28.4116 0.0360797 0.0766248 0.0870397 
418 1 -8.7864 14.7791 29.367 -0.0232921 0.0155728 -0.0108906 
420 1 -7.85259 15.0931 28.4752 -0.00233498 0.0152061 0.00968037 
430 2 -8.52249 15.2027 26.6783 0.0107366 -0.0238961 -0.0141075 
408 1 -9.65093 14.3051 30.1583 0.00143183 0.00654973 0.0215697 
250 2 -7.00398 14.4659 26.4953 0.0748535 0.00230639 0.023308 
426 2 -10.6833 15.5032 32.1608 -0.0531998 0.00389704 0.0128975 
414 1 -8.66745 13.0421 27.1634 0.000393572 0.00526247 0.00950989 
108 2 -3.1752 13.1914 25.6573 -0.041805 0.0149257 -0.0529655 
485 1 -3.27476 12.1677 25.0661 -0.0181062 0.00148098 0.000998521 
498 2 -3.42775 12.0993 24.1347 0.0161774 0.00877595 -0.00555085 
557 1 6.43148 23.7193 27.6154 -0.00597347 0.018546 0.0325754 
549 1 7.79941 23.2624 27.0543 -0.0079743 0.0170406 -0.0374993 
566 2 9.90069 23.6338 26.6414 0.0768813 -0.0383474 -0.0572439 
558 1 9.11535 23.7208 27.4753 0.00861606 0.00178203 0.0189357 
561 1 9.68941 23.8335 28.7662 0.0111797 0.00422134 -0.0158477 
565 2 3.47391 25.3617 29.3354 -0.0138468 -0.0594344 -0.0806829 
553 1 4.52917 25.6774 29.6119 0.0216299 -0.0112332 -0.00862353 
547 1 5.94271 25.5368 29.5527 -0.02996 0.0149358 0.0194942 
554 1 6.48829 24.382 28.8301 0.0248154 -0.00653618 -0.0140695 
569 2 8.68536 25.5722 29.0616 0.0309451 -0.00677743 -0.0557446 
402 1 -10.2698 14.4746 31.5142 0.0302395 -0.000358778 -0.0115663 
400 1 -10.404 13.447 32.359 0.015244 0.00503629 0.0193565 
401 1 -9.45912 12.7612 29.8123 -0.0112849 0.0291561 0.00705934 
502 2 -11.5001 23.0779 18.3445 -0.0718424 -0.00773577 0.0730301 
406 1 -10.7966 13.1991 34.7787 0.00706793 0.0164046 0.00851075 
486 1 -11.8456 23.58 17.3785 0.015556 0.0168769 -0.028173 
419 1 -10.2298 15.7367 34.9848 -0.00944434 0.00076238 0.00811371 
431 2 -9.59072 16.3958 34.1724 -0.0388572 0.0105266 0.00845077 
416 1 -10.3303 14.5357 34.5891 0.0041108 -0.00238699 0.0087063 
210 2 9.02914 29.0926 20.0898 -0.0328045 -0.0946033 -0.0445237 
415 1 -10.8775 12.6221 33.3695 0.0220717 -0.0245169 -0.00378731 
245 2 -5.22229 13.8763 32.0856 0.0130938 -0.0565317 0.0586072 
242 2 -3.56354 13.6638 32.5809 0.0103824 0.0645625 -0.0263612 
219 1 -3.89956 16.1341 34.4305 -0.0143721 -0.00273632 0.0280244 
222 1 -1.66379 16.5281 35.7301 -0.0204351 0.00874065 -0.00129749 
217 1 -4.43766 15.219 35.5129 0.00740186 0.00907936 0.0181598 
221 1 -2.56136 16.8147 34.5067 0.00204124 0.0186094 0.0230486 
227 1 -1.93378 17.4172 33.4687 -0.0291746 -0.026956 0.00147708 
223 1 -5.65306 14.4142 35.3817 -4.39365e-05 -0.00728479 -0.0125261 
225 1 -4.3796 15.7378 33.1077 0.00454195 0.0214677 0.0171845 
233 1 -4.60731 14.2335 32.8552 -0.0216511 0.0442179 -0.000197421 
230 1 -5.56502 13.9606 34.0041 -0.0310206 -0.0313029 0.0155622 
234 1 -3.61446 16.3279 32.0406 -0.00943437 0.0288357 0.00162703 
246 2 -3.70394 15.8328 30.9473 0.00946614 0.0588142 0.0717533 
237 1 -2.45151 17.2341 32.0187 0.00458925 -0.012766 -0.0169286 
238 1 -0.545783 17.3067 33.2169 -0.00616463 0.0173561 0.0146073 
249 2 -1.93073 17.6736 31.1821 0.0204976 0.000634376 -0.0111251 
240 1 0.152765 16.9491 34.3469 0.014247 -0.00871714 -0.0273483 
252 2 1.1196 17.4452 34.0292 0.0528848 -0.0804383 -0.00870136 
357 2 0.130584 17.8515 32.0986 -0.0378433 0.0115264 0.00737986 
573 2 10.7708 23.4024 30.5845 -0.000678967 -0.0576704 0.0822998 
421 2 8.76662 23.7739 33.8467 0.0716954 -0.00907651 -0.0499007 
548 1 4.20682 26.8097 30.5956 0.00121972 -0.0160009 0.0277005 
567 2 3.38483 27.4294 30.8722 0.0567436 -0.106105 -0.0426095 
568 2 4.05929 27.9888 33.2453 -0.0350962 0.130432 0.0680196 
571 2 5.75728 26.9289 35.29 -0.0681217 0.110687 -0.0431271 
556 1 4.99831 27.3128 33.0348 -0.0294535 -0.00458175 0.000409865 
555 1 5.12729 26.8069 31.7696 -0.013132 -0.0156433 0.0045013 
559 1 5.87836 26.7675 34.1602 -0.005913 0.00277667 -0.00125592 
543 1 8.32666 26.0706 29.9946 -0.00845134 0.00794345 -0.0208246 
544 1 7.62377 26.1917 32.7673 -0.00342523 -0.0214778 -0.00158086 
564 1 9.37455 24.5205 33.2354 0.0085495 -0.0116939 0.00827465 
545 1 9.18137 25.209 30.9884 -0.030108 0.0315059 -0.0006111 
576 2 11.3046 25.7496 33.5072 0.0204244 -0.0298626 0.06168 
560 1 7.66513 26.9786 35.6195 0.0082106 0.00201909 0.0101023 
541 1 6.97886 26.135 30.2296 -0.015437 -0.00602408 -0.0189096 
551 1 10.1256 24.1632 30.0762 0.00820138 0.00580636 0.011902 
562 1 10.5464 25.0459 34.1098 0.0140726 -0.00802288 -0.0358919 
550 1 7.16457 26.2991 34.1376 -0.00769206 -0.0125634 0.0136229 
546 1 8.95438 25.599 32.2352 0.00997413 -0.0160335 0.0294523 
542 1 6.55938 26.505 31.7664 -0.00382702 0.00713474 0.00527185 
399 1 -9.38481 12.5488 28.3359 -0.0196083 0.0125248 0.0182326 
284 2 9.52586 28.8294 19.3164 0.0226974 -0.113246 0.0085498 
348 1 24.7238 -7.23127 10.6879 -0.00686169 -0.00840652 0.00554731 
358 2 25.6904 -5.31581 11.0385 -0.0403513 -0.067571 -0.0985455 
208 2 29.8858 11.0758 -7.14266 -0.0216429 0.00371375 0.0516634 
196 1 34.6578 10.1301 -6.45419 0.0228566 -0.015172 -0.0084217 
188 1 33.4777 10.8795 -6.32496 -0.0142952 0.0168393 -0.0277655 
195 1 32.0544 10.3133 -5.96404 0.0120684 -0.00573167 0.00258064 
205 2 31.7157 10.4293 -5.02039 0.0853072 0.00462218 0.101737 
207 2 31.8824 9.24287 -6.37378 0.00802669 -0.037118 0.0530018 
193 1 30.8937 11.2076 -6.52944 -0.00888921 -0.0174488 0.0197748 
137 2 14.4466 -1.01434 -0.888277 0.063102 0.037503 -0.0535054 
125 1 15.4868 -0.905433 -1.20437 0.00119071 0.0148205 0.0109442 
134 2 18.6467 -1.06333 -2.75962 -0.128667 -0.0617252 -0.0121319 
115 1 17.6593 -1.20304 -2.02733 -0.0313105 -0.00688312 -0.0189135 
122 1 16.2811 -1.10219 -2.45761 -0.0221488 0.00344521 -0.00302449 
124 1 22.0997 0.472198 -1.03426 0.0130294 0.0222557 0.0129036 
109 1 18.4935 -0.582809 -0.85148 -0.00389187 -0.00438528 0.0165966 
116 1 20.8294 0.844267 -1.65448 -0.0265828 -0.00574845 0.00213629 
139 2 21.2613 2.71368 -2.88507 -0.109556 0.0138111 0.00474261 
123 1 20.5831 2.21514 -2.35792 -0.0207044 -0.0199319 -0.00562256 
121 1 19.4099 1.9058 -3.26462 -0.0367572 -0.000307763 -5.20524e-05 
496 2 19.9038 1.83898 -4.45315 0.0704597 0.0374703 0.120674 
110 1 19.8375 -0.0492822 -0.786736 -0.0230521 0.00552334 -0.00268133 
199 1 35.5752 11.1805 -6.5752 -0.0214498 0.00167727 0.00418503 
117 1 16.0149 -0.786959 0.079036 -0.00890137 0.0133392 -0.015694 
138 2 14.3635 -1.9121 1.81281 0.00601794 0.0131687 -0.00621674 
126 1 15.3694 -1.45904 1.17466 0.0133648 -0.0326092 -0.00698995 
142 2 17.6006 -1.41499 4.92275 -0.0593464 -0.00390814 -0.0507825 
143 2 22.1562 -0.573968 3.91922 -0.0091701 0.069704 -0.00905082 
120 1 20.0831 -0.0725892 2.89443 -0.0185859 0.00165323 -0.0236745 
131 1 21.6082 -0.516683 3.11069 -0.0031323 0.0219098 -0.0114852 
132 1 19.4518 -0.149091 4.43595 -0.0219418 -0.0311015 -0.021625 
114 1 19.5184 -0.313955 1.59252 -0.00113543 0.000595513 0.00382254 
112 1 20.5417 -0.370055 0.509179 -0.00602189 -0.00545838 0.0214197 
118 1 21.8283 -0.960849 0.558249 -0.0221939 -0.00858125 -0.0101926 
128 1 22.2916 -1.05092 1.90048 0.00978503 0.00560358 -0.019691 
113 1 17.9423 -0.520167 1.60061 0.0150063 -0.00536355 -0.0128293 
127 1 22.9884 -0.400287 -0.408623 -0.00696145 -0.00806278 0.00935326 
140 2 23.0096 -1.81863 2.23573 -0.0587285 -0.0195257 0.0929903 
130 1 18.2969 -0.905136 4.19461 0.00011006 0.0355314 0.0216076 
141 2 16.2201 -2.22781 3.31546 0.0279985 -0.000615438 0.118557 
129 1 16.0386 -1.36889 2.46591 0.00325715 -0.0263772 -0.0072655 
119 1 17.2867 -0.723469 2.87468 0.020762 -0.00749884 -0.00714461 
111 1 17.5118 -0.67871 0.295962 -0.0132275 0.0184088 0.000273059 
432 2 31.087 -3.562 7.77685 0.0524168 0.00669495 0.00674918 
347 1 22.9199 -8.56442 11.8334 0.00307786 -0.02655 0.0200752 
359 2 22.3112 -7.76757 11.4147 0.0192005 0.0251645 0.000269547 
360 2 23.8068 -6.86726 10.1982 -0.0354859 -0.0502303 -0.11825 
336 1 24.357 -8.41974 11.4928 0.0196261 -0.00984046 -0.0117057 
346 1 25.7269 -6.32532 10.8996 -0.00297748 0.00517077 0.0125999 
335 1 26.6469 -6.86405 12.0041 -0.0199547 0.0244604 0.00681616 
330 1 25.6443 -8.91101 11.8184 0.0165921 -0.00143798 -0.000494774 
329 1 26.9171 -8.27571 12.0349 0.0315473 0.0050702 0.0160088 
344 1 22.7511 -9.86177 12.1691 0.00680259 -0.00795141 -0.0185434 
497 2 14.9359 1.27465 23.1587 0.0410483 0.00740355 -0.00200526 
334 1 23.9068 -10.8311 12.2088 0.00899769 -0.0167532 0.0044891 
216 2 26.8581 -5.35946 13.5603 -0.00581444 -0.0316501 0.0119581 
331 1 28.6149 -11.1772 13.7519 -0.000249473 0.0194308 -0.0331017 
338 1 29.5265 -10.3764 14.7235 0.00618453 0.00645146 -0.00670367 
467 2 33.9321 -9.34884 23.9605 -0.0150931 -0.0225012 -0.0364534 
325 1 27.3084 -10.5767 13.406 0.00336487 0.00352125 -7.08068e-05 
326 1 26.0532 -11.2642 12.9126 0.0194583 0.0139594 -0.0144129 
328 1 25.3745 -10.297 12.1967 0.00761258 -0.00588181 0.00259004 
333 1 28.1252 -8.49877 14.1269 -0.00819544 0.00997556 0.0148054 
342 1 28.1926 -7.07312 14.2103 -0.0122073 -0.0228682 0.0377668 
327 1 27.4843 -9.20254 12.9781 0.0173892 -0.0175236 0.0064356 
341 1 28.9501 -9.13041 15.1165 -0.0300567 -0.0163905 0.0132109 
353 2 29.5303 -8.72757 15.9595 -0.0146196 0.00500583 -0.020091 
350 2 30.6274 -10.5569 15.3407 -0.0376201 -0.100528 0.000665624 
98 2 18.4869 8.53832 18.288 0.0326093 0.0492204 0.0107076 
354 2 28.7149 -6.33277 14.7906 -0.0115922 -0.0407709 -0.0444487 
442 1 35.3277 -8.84513 22.907 0.000853446 0.0134955 0.00892497 
463 2 33.5704 -9.04666 21.9885 -0.00173841 0.0705718 -0.0700518 
451 1 34.7347 -8.89998 21.6431 -0.014437 -0.0103418 -0.00649636 
448 1 35.2865 -7.98809 20.6281 0.00204893 0.0117035 -0.0113702 
460 2 34.7401 -7.28215 19.9749 -0.0758978 -0.0166865 0.0405745 
455 1 35.6334 -9.02727 25.4769 0.0246405 -0.0103826 0.00403784 
452 1 35.0608 -9.23706 24.3156 0.0180825 -0.0115171 -0.00956684 
356 2 21.7191 -9.82819 12.3858 0.0598235 -0.0431939 -0.0170695 
345 1 27.1693 -6.33198 13.49 -0.0270995 -0.0173181 0.0121229 
385 2 21.1235 11.2606 16.4362 0.0345555 0.0320342 -0.0970008 
570 2 21.0151 11.3525 15.5968 -0.0130217 -0.0868456 -0.0109713 
206 2 28.7349 12.0243 -5.45548 0.0827552 0.0116295 0.0523708 
194 1 29.6208 12.7306 -5.60597 0.00257695 -0.00795894 0.0160927 
197 1 29.7475 14.3174 -5.17784 0.00353372 -0.00920329 -0.000637956 
209 2 28.861 14.8606 -4.89329 0.0721262 -0.000249378 -0.0226634 
187 1 30.8484 12.8074 -6.21209 -0.0175892 0.0138478 0.0230428 
182 1 33.3515 12.4293 -5.86344 -0.019289 -0.0104887 0.0173433 
181 1 32.1777 13.3503 -6.01203 -0.0136786 -0.0132687 0.0052765 
184 1 34.3069 13.3169 -5.76783 0.0379578 5.46891e-05 0.00103054 
283 2 22.7984 28.7507 0.106602 -0.0452405 -0.0584001 -0.133293 
189 1 30.9085 15.1251 -5.10028 -0.000560627 -0.00782346 -0.01766 
183 1 32.1853 14.6941 -5.59894 0.0151361 -0.0157943 0.00465316 
198 1 30.8585 16.6772 -4.84428 -0.0136501 -0.000122365 -0.000733947 
133 2 29.9708 17.0996 -4.25224 0.0921871 0.0405805 -0.010304 
201 1 31.8121 17.3555 -5.73272 0.00530926 -0.0117511 0.0177159 
190 1 35.7381 12.7515 -6.12998 0.0141354 -0.00961077 0.0181425 
185 1 33.3443 15.313 -5.29351 -0.0361146 -0.00526777 -0.00616606 
186 1 34.3675 14.5699 -5.26994 0.00124841 0.0108992 0.0248416 
191 1 32.9654 16.7065 -5.07846 0.0106652 -0.0135619 -0.0113367 
213 2 33.532 17.5907 -4.88189 -0.0296641 0.000416115 0.0734149 
278 2 22.5633 28.6797 -0.693957 0.00962153 -0.0251581 -0.0997964 
214 2 31.5118 18.5115 -5.94413 0.0521955 0.0414853 -0.0260471 
203 1 35.7177 15.0713 -5.9563 0.0127551 0.0358587 -0.0351766 
340 1 24.3766 34.7312 13.1926 -0.00698834 0.00196363 -0.0256251 
337 1 28.5376 35.4233 13.682 -0.00426018 -0.00662015 -0.00940688 
351 2 26.7717 33.6768 12.9698 -0.0570826 -0.0617624 0.0326853 
349 2 29.0814 34.8436 14.4086 -0.0343486 -0.0157477 -0.0173662 
339 1 27.238 34.665 13.3348 0.0198943 0.00173805 0.0103596 
35 2 33.7896 28.3757 34.3443 0.0489963 -0.0615158 -0.0328145 
343 1 23.9144 35.8799 12.7398 -0.0242908 0.00615617 -0.00861011 
36 2 27.3071 21.2538 25.3871 0.0604277 0.0285636 -0.048784 
32 2 24.5145 20.4194 29.5736 -0.129517 -0.0496291 0.00432392 
20 1 25.0369 20.6295 28.6472 -0.000211054 -0.00275131 0.00256381 
23 1 25.7463 20.7164 27.429 -0.0333074 0.00647201 -0.00758841 
10 1 25.8884 21.4323 29.6695 0.0112279 0.00927941 0.0012366 
4 1 27.3316 21.7172 29.8764 -0.000381536 0.00563584 0.00858492 
12 1 26.9941 21.688 27.3436 -0.0064706 -0.000819892 -0.0173284 
6 1 27.8523 21.4165 28.4927 -0.00494845 -0.0225702 -0.0332857 
24 1 27.9043 21.5354 26.3004 -0.0192823 0.0109173 -0.00854354 
34 2 29.3079 20.713 25.1286 0.00206893 -0.0785658 0.0434093 
22 1 29.143 20.9845 26.0671 -0.00605379 0.00873478 -0.00651857 
5 1 29.1812 20.8694 28.4202 -0.00663346 0.0254221 0.0174384 
18 1 31.4008 21.4109 28.902 -0.000159493 0.00256174 0.0184035 
30 2 32.1773 21.5517 26.7996 -0.0176945 -0.0474571 -0.0115922 
26 2 32.0569 22.1155 29.2313 -0.0706239 -0.0297179 -0.0236489 
11 1 29.9016 20.9905 27.1398 -0.0163489 -0.00245063 -0.00505737 
21 1 31.4068 21.262 27.5819 -0.0184573 0.0202422 0.0277362 
9 1 29.9967 21.7326 29.3748 0.0117138 0.0283583 0.0108458 
31 2 24.3705 21.0646 31.4506 -0.0292863 -0.0260863 0.0555024 
19 1 25.1973 21.3973 30.9506 -0.0126373 -0.00412038 0.0161306 
2 1 28.2249 21.9223 31.0514 -0.039586 0.00541125 0.0153227 
28 2 25.4246 23.24 31.7 -0.00597513 -0.0214804 -0.0157392 
16 1 25.9538 22.4709 31.6583 0.0290266 -0.0140704 -0.00287559 
1 1 27.3087 22.6948 32.0213 -0.0275346 0.00330618 0.0116572 
3 1 29.562 21.952 30.6664 -0.00973439 0.0154194 0.0263808 
25 2 25.7052 27.092 32.3224 -0.0347676 0.0322998 0.0234305 
8 1 27.076 25.1235 32.8172 -0.0101719 -0.00296441 0.00471775 
7 1 27.8072 23.9397 32.6605 -0.00601657 0.0123431 -0.0057333 
13 1 26.5553 27.5639 33.2573 0.020449 0.00492531 0.00551805 
15 1 27.0649 26.3795 33.2379 0.0366094 0.0246306 0.0261543 
27 2 28.8267 23.7689 32.9151 0.00979072 -0.0318038 -0.0442432 
332 1 26.0274 35.3177 13.0725 0.0248385 0.00492165 -0.0028474 
211 2 36.5934 11.0455 -7.07365 0.0831331 0.041171 -0.0777476 
170 2 40.706 -6.85253 -2.6662 0.149736 0.0844472 0.139803 
64 2 41.3213 -6.86985 -2.66163 0.0206811 -0.0272877 0.05454 
433 1 38.4167 -7.44964 21.7011 -0.00321328 0.0111564 -0.0177543 
439 1 38.5826 -6.87069 20.5325 0.0182743 -0.0232607 -0.0344873 
434 1 37.4328 -8.54363 21.6066 0.00620896 -0.0140566 -0.0196073 
449 1 40.6396 -6.03745 21.4464 0.00778257 0.0134542 0.00484973 
459 2 38.4021 -6.93941 18.2787 0.0679165 0.0604268 -0.0603116 
445 1 38.1467 -7.30811 19.17 -0.0016204 0.01108 -0.029891 
441 1 40.6625 -7.11731 22.4486 -0.011057 -0.0247605 0.00842077 
435 1 39.3701 -7.7799 22.6858 -0.00344404 -0.00174879 0.0175652 
446 1 39.6365 -5.74127 20.555 -0.00884468 -0.0037778 0.00711368 
458 2 39.1969 -4.71669 20.3661 0.0534495 0.123121 0.0238294 
447 1 37.1811 -8.3207 19.0175 0.00266389 -0.0123798 0.00437101 
436 1 36.8744 -8.3488 22.7703 -0.0158815 0.00592204 -0.024876 
462 2 41.2778 -10.0128 29.1688 -0.0285281 -0.0128975 -0.00835271 
464 2 41.6528 -5.53177 21.7709 0.0229333 0.0987503 -0.120762 
461 2 41.5001 -7.44965 23.1454 0.146085 -0.0601102 0.017328 
456 1 38.2659 -8.98369 25.9749 -0.0201436 0.00818552 -0.0214506 
437 1 39.0535 -8.20303 24.0372 -0.0226568 -0.0121274 -0.00672466 
443 1 40.5396 -8.11653 26.3991 -0.00328407 -0.0138074 0.0343427 
453 1 40.6114 -9.04821 27.4363 0.00123569 0.0133225 0.0157942 
454 1 39.565 -8.32217 25.3661 0.0131115 0.000905633 -0.0279653 
465 2 41.3023 -7.97311 25.6102 -0.000485974 0.016043 0.0506956 
468 2 38.4164 -8.87301 27.058 0.0582858 -0.0235912 -0.0152966 
438 1 37.5589 -8.41051 24.0194 0.000909509 0.00523187 0.0251029 
444 1 37.011 -8.74035 25.3625 0.0269651 -0.00755779 -0.0156269 
450 1 40.7461 -10.0011 28.3619 0.0329413 0.0284119 0.00664646 
440 1 36.5577 -8.43938 20.364 0.0249418 -0.0362024 -0.00223871 
457 2 36.7694 -8.82645 18.0153 0.0792111 0.0457684 0.0772588 
212 2 36.0785 19.8443 -5.11467 -0.140894 -0.0609693 0.0656597 
202 1 36.4366 17.7276 -5.39154 0.00607956 0.000970364 -0.0237688 
537 2 49.2607 26.387 -5.07735 0.000756419 -0.00877517 -0.0137913 
215 2 37.6219 14.0942 -6.62176 0.0431894 0.0459079 0.0498854 
200 1 36.4686 13.7646 -6.11429 0.0028606 0.0166982 -0.00158814 
204 1 36.4731 18.8494 -5.40388 -0.00855609 0.00750099 0.0107735 
540 2 48.6824 26.3892 -4.35326 0.0642033 0.000154357 -0.0402896 
192 1 36.4678 16.0753 -5.41582 0.00426753 0.00477063 0.00668301 
67 2 44.5646 21.2576 21.6069 -0.00916278 -0.070938 0.0107815 
55 1 44.2328 21.0663 22.6037 0.00894083 0.0211728 -0.00390157 
52 1 42.6358 21.2118 22.9628 -0.0241236 0.0135972 -0.0101403 
59 1 46.2749 19.5314 22.7841 0.0109997 -0.00915694 0.0032255 
46 1 45.4166 20.6921 23.3097 0.00334369 -3.54275e-06 -0.0115425 
56 1 47.4753 19.6117 23.5303 -0.0158974 -0.0313268 -0.00501319 
72 2 45.9863 18.6674 22.3123 -0.000250195 0.0131142 0.0457541 
63 2 40.7048 22.2497 23.2403 -0.0107585 -0.00691532 -0.0117428 
51 1 41.8702 22.061 23.7173 0.00251118 -0.0145158 0.0148504 
40 1 45.3897 21.2333 24.8007 0.0123729 0.0141943 0.01559 
48 1 48.0483 20.4769 24.505 0.0265081 0.0164926 0.000117012 
44 1 42.7576 22.1547 24.954 0.00680823 0.000369864 0.00673517 
42 1 46.8321 21.4897 24.8024 0.00499396 -0.00426936 0.0248377 
38 1 44.3385 22.2087 24.8719 0.00125708 0.00579415 0.000844078 
47 1 47.389 23.5141 28.5396 0.0187891 0.00937601 0.00713223 
49 1 42.6086 21.8892 26.4667 0.00725735 0.0132616 0.00692353 
37 1 44.5425 22.8891 26.0918 -0.011797 -0.0142378 -0.0132626 
41 1 46.826 21.8179 26.2422 0.00797449 -0.00216335 0.0139381 
43 1 43.4321 23.1569 26.9839 -0.0246257 -0.0171246 -0.00582015 
39 1 45.7486 22.4552 26.9339 0.0264198 -0.010174 0.0154517 
45 1 46.3236 23.7796 27.5009 0.00373183 -0.00600428 0.00436897 
65 2 45.8479 24.7337 27.7709 0.0236616 -0.0651625 -0.099622 
66 2 48.3783 24.1344 28.5119 -0.00120337 0.0512631 0.00229877 
70 2 50.1536 19.8477 25.1771 0.0650153 -0.0508939 -0.158727 
57 1 48.1443 22.2223 28.5098 -0.0281074 0.0129196 -0.0039805 
60 1 49.1334 19.9513 25.3789 -0.0182961 -0.0107078 -0.0130158 
54 1 48.8431 20.3061 26.8512 -0.0355854 0.0170028 0.0376306 
58 1 47.9785 21.4021 27.2634 -0.0226071 0.0127172 -0.0226354 
69 2 49.4741 19.6988 27.5509 0.00253126 0.0705743 -0.0270212 
61 2 43.1152 23.6324 30.3873 -0.0174804 0.0156101 0.0525384 
62 2 44.3927 24.9162 29.7349 -0.00251538 -0.0210093 0.066786 
50 1 43.545 23.8108 28.2894 0.019036 -0.000445635 -0.0119913 
53 1 43.5152 24.1586 29.5598 0.0109715 -0.0172278 0.00101788 
427 2 83.7144 9.52355 -10.998 0.0152316 0.051693 -0.0800151 
176 2 67.3723 0.725007 -11.1874 0.0549885 -0.0196013 -0.0719359 
285 2 76.0076 -11.241 -7.78573 0.0505531 -0.034485 0.0230621 
68 2 73.058 3.46626 11.6965 -0.105837 0.00482777 0.0704044 
394 2 61.342 -8.76529 -8.9896 -0.0684699 0.0877687 0.0789005 
144 2 61.8711 -8.54012 -9.79012 0.029305 -0.0236766 -0.166157 
575 2 75.8343 -12.0304 -5.01177 0.0392014 -0.0687567 -0.00384852 
71 2 76.435 -8.26482 26.0636 0.0775312 -0.0674872 0.0318727 
504 2 76.7168 -8.61272 25.354 0.0452313 -0.0377096 -0.064293 
14 1 82.2608 5.19174 33.7605 0.0243113 0.00312429 -0.0158654 
422 2 82.49 4.20184 33.3499 -0.0155914 -0.114942 0.066541 
411 1 83.5686 10.0184 35.8473 -0.0112296 0.00458711 0.03242 
410 1 82.1435 6.42982 33.1977 0.0241752 -0.0054826 -0.0244111 
423 2 81.8272 8.71453 35.4824 -0.0941481 0.0127377 -0.0905596 
413 1 81.9485 7.84525 32.6979 0.00984781 -0.0364242 0.0125248 
409 1 82.5208 9.42538 35.2338 0.0568394 -0.00296313 0.00580155 
29 2 80.284 9.08627 33.3437 0.00369267 -0.00389292 0.0496792 
403 1 81.5123 9.0872 32.8253 0.00849211 0.00916141 -0.0127571 
397 1 82.6703 9.66849 33.744 0.0032352 0.00814491 0.00298341 
17 1 83.2257 10.7717 33.139 0.00741937 -0.00816477 0.0122114 
425 2 83.0087 11.0759 32.1485 0.0934428 -0.0273214 0.0410843 
248 2 67.1454 1.23903 35.9803 -0.0378832 0.0392083 0.0410601 
267 1 77.5522 29.7365 -10.3483 0.00351962 0.0044154 0.00780961 
279 2 77.9144 29.3587 -11.3454 -0.0689956 -0.0449212 0.026694 
260 1 77.7371 29.4341 -8.96369 0.0151875 -0.000371878 -0.00968952 
280 2 78.8543 27.5134 -8.47874 -0.00717482 -0.0765611 -0.00200344 
268 1 78.3358 28.4568 -8.12303 -0.0127868 0.0027029 -0.00510449 
271 1 78.7746 28.7641 -6.78398 -0.0135835 -0.0222286 -0.0181382 
270 1 76.4116 35.7022 -7.42949 -0.0012949 0.00618025 -0.00594182 
261 1 76.3214 34.3647 -7.85279 -0.00522768 -0.0139773 0.0114385 
269 1 75.0741 33.6885 -8.81556 -0.0191268 -0.0063448 -0.00227299 
255 1 77.3851 33.3856 -7.73966 0.0113488 -0.0182087 0.00550954 
281 2 74.2541 33.9127 -8.14813 0.0404802 0.0287621 0.0494628 
253 1 77.1365 31.9911 -8.24853 -0.0192714 -0.0110247 -0.00164348 
266 1 75.4409 32.8044 -9.8258 -0.0341292 0.00694282 0.016004 
277 2 76.7063 31.5321 -11.4359 -0.0114052 -0.0830434 0.0498189 
259 1 76.4191 31.8812 -9.51002 0.00391524 0.0128898 0.00456761 
265 1 76.9423 30.9606 -10.6769 -0.00837828 0.00748161 -0.000586294 
257 1 78.326 33.5398 -6.46517 0.0274143 -0.00417386 -0.024878 
254 1 77.9233 30.9095 -8.10243 0.00982324 0.0554024 -0.020361 
256 1 78.6097 31.0581 -6.8792 -0.00550503 -0.0141603 0.000188988 
273 1 76.5555 35.576 -5.90463 0.00699057 0.0130755 0.0413219 
386 2 79.273 28.8042 8.7623 0.0586972 -0.0124 -0.0577543 
286 2 78.6732 35.6454 -3.91554 0.0643682 -0.0231411 -0.0647113 
274 1 78.2292 34.6874 -4.24645 -0.00753271 0.0240377 -0.0259926 
263 1 77.7565 34.7352 -5.80291 0.0116135 0.0389204 -0.0232233 
276 1 78.2338 33.3205 -3.54573 0.00221352 -0.0289408 -0.0347749 
258 1 78.4494 32.3048 -5.80701 -0.00269946 -0.0136408 -0.0270459 
288 2 78.5503 33.075 -2.60732 0.0286115 0.0310462 -0.0253796 
264 1 78.4182 32.3043 -4.55435 0.0206924 0.000892419 -0.00767014 
272 1 79.1857 29.7057 -3.76069 -0.0302531 0.00421709 0.00418217 
275 1 79.0941 30.7112 -4.62852 0.00527754 -0.0131389 -0.00615167 
262 1 79.3593 29.985 -6.0916 -0.0078347 -0.0196412 0.015848 
391 2 72.1789 24.8079 6.61753 -0.0449957 -0.00889359 -0.00468745 
376 1 74.0256 26.353 6.3449 -0.00100665 0.00812966 0.026054 
395 2 73.3988 22.5976 7.59081 -0.0716022 0.00889886 0.141953 
392 2 73.5072 21.385 9.6867 0.0154668 -0.0241782 0.0383371 
539 2 67.0952 35.6561 5.61214 0.154057 -0.0803039 0.0646316 
380 1 73.4339 23.2732 8.28275 0.00887486 -0.0125314 -0.0255585 
383 1 73.7173 22.4246 9.53778 0.0182393 0.00361078 0.0232739 
372 1 74.2603 23.1552 10.746 -0.0136683 0.00379701 -0.00628071 
377 1 78.617 27.6357 10.5759 -0.0155946 -0.009353 0.0197359 
379 1 73.1436 25.2759 6.95386 -0.0171252 -0.00120142 -0.01791 
387 2 78.3385 28.5487 6.52818 0.130699 -0.0517026 0.0071503 
373 1 77.4554 28.3842 7.14721 -0.00236926 -0.0177056 -0.000621052 
375 1 76.1362 28.2054 6.59609 0.0111866 -0.0022111 0.0148277 
370 1 73.8958 24.536 8.0842 0.00326013 -0.0067968 0.00633621 
362 1 75.1261 26.565 8.59412 0.0141638 -0.00396216 -0.042313 
363 1 76.8682 25.9124 10.2755 0.00203158 0.0292045 0.0250966 
389 2 78.0975 28.1772 11.399 0.0804158 -0.0381554 -0.0756734 
365 1 75.6682 25.3081 11.0721 0.0362644 0.0250395 0.0230036 
374 1 78.606 28.0159 9.19274 0.00188517 -0.00593174 0.0171966 
361 1 76.5059 26.6771 8.92749 0.0178419 -0.0115911 0.00973507 
366 1 74.5968 24.5528 10.4638 0.000798571 -0.0159186 0.0180479 
364 1 74.5649 25.2947 9.14082 0.0127528 -0.0161675 -0.00395653 
367 1 77.3833 27.727 8.4954 -0.0135816 -0.00895369 0.016598 
368 1 75.2524 26.8458 7.16036 -0.00771404 0.00354693 0.0274876 
369 1 78.0368 26.2974 11.0871 0.000737404 -0.00586102 0.00802818 
179 2 66.8317 34.9834 5.65964 -0.0257835 0.00911479 0.0303892 
315 2 70.3842 16.2721 17.9535 0.0257085 -0.0684364 0.0247116 
303 1 71.2747 16.7646 18.0412 -0.0149108 0.000627238 0.0104574 
316 2 71.2061 15.2522 15.9198 -0.00981586 0.0545014 0.0730143 
304 1 72.235 15.6491 16.0879 -0.0109463 -0.0142681 0.00708393 
307 1 73.4011 15.714 15.4269 0.000535344 0.00358016 0.00012248 
319 2 73.6472 15.0739 14.5994 0.111586 0.0624903 0.00474783 
296 1 72.3416 16.6169 17.1953 0.0186885 -0.00896755 -0.0360728 
308 1 75.8421 16.4729 15.0362 -0.00781979 -0.021747 -0.0204629 
298 1 74.4796 16.759 15.459 0.00601054 -0.0177642 -0.0177825 
320 2 76.1295 16.7336 13.9061 0.00834336 0.0737496 -0.0213045 
311 1 76.6113 15.9104 16.1267 -0.0118142 -0.00746127 -0.0108416 
312 1 77.3902 15.6153 16.9127 -0.00554034 -0.0394495 -0.00255132 
317 2 69.2924 20.5273 18.4162 -0.0783478 0.0230364 0.113146 
318 2 70.2858 22.9138 18.1616 0.0298196 -0.0228604 0.110431 
297 1 70.9974 22.0393 18.5175 -0.0135653 0.0273842 -0.00633285 
390 2 73.846 25.6035 14.2126 -0.115934 -0.0235502 -0.0130148 
321 2 78.028 21.1191 17.3775 0.000439427 -0.0132184 0.0216824 
300 1 77.4488 20.6001 16.581 -0.0117494 0.00442041 -0.00907185 
293 1 76.6576 19.5139 17.0175 -0.0417697 -0.00808952 -0.0160715 