ITEM: TIMESTEP
440000
ITEM: NUMBER OF ATOMS
576
ITEM: BOX BOUNDS pp pp pp
-1.2000000000000000e+01 8.4000000000000000e+01
-1.2000000000000000e+01 3.6000000000000000e+01
-1.2000000000000000e+01 3.6000000000000000e+01
ITEM: ATOMS id type x y z vx vy vz 
9 1 5.47042 -6.64749 -11.5784 -0.00962297 -0.0310194 -0.0142908 
17 1 5.79447 -8.05357 -11.0711 -0.00905843 0.0168985 -0.0215666 
373 1 2.32295 -5.81974 1.59163 0.0267853 0.0196976 -0.0218212 
14 1 5.93494 -8.12841 -9.76649 -0.0191648 0.0124762 -0.0145134 
26 2 5.61443 -8.97593 -8.77734 -0.0374973 0.00673669 0.0892464 
7 1 6.35555 -6.86405 -9.2808 0.00954867 -0.020655 0.000737669 
13 1 6.50758 -7.08622 -7.83765 0.00255014 0.0224705 -0.0135681 
25 2 6.2858 -7.85237 -7.25117 0.0144115 0.0332746 -0.044646 
12 1 5.53944 -1.67929 -10.7384 -0.027963 0.00885619 0.0061099 
4 1 6.53403 -3.47114 -9.12112 0.00331996 -0.0281772 0.0342112 
23 1 6.11201 -0.623715 -9.79803 -0.00452281 0.0188465 -0.0159142 
6 1 6.14819 -2.90232 -10.3985 0.0224719 -0.00631644 0.0248921 
3 1 5.77794 -5.33287 -10.94 0.0134498 -0.00246232 -0.010146 
5 1 5.46602 -3.90578 -11.12 0.0591537 -0.0182287 -0.00354548 
396 2 -0.784232 -7.34469 -4.37944 0.0544639 0.0449399 0.0567408 
1 1 6.30625 -5.60145 -9.63478 0.00154101 0.0118577 -0.00134591 
2 1 6.3551 -4.68633 -8.65211 0.0209177 0.0172014 -0.0313858 
8 1 7.10966 -4.92617 -7.39172 -0.00113092 -0.000889419 0.0155555 
24 1 4.91129 -1.20526 -11.9338 -0.0178347 0.000217912 -0.010265 
10 1 6.24508 -2.57866 -8.00703 0.00415539 -0.0284599 0.0254026 
20 1 6.55897 -1.16858 -8.62353 0.0100472 -0.0277437 0.0230954 
19 1 6.30618 -3.14869 -6.53236 0.00117884 0.00917712 -0.0197237 
31 2 5.6399 -3.25182 -6.08081 0.0477267 -0.0341257 0.157099 
35 2 6.2594 0.3767 -10.1068 -0.0259562 -0.0162912 -0.0511574 
32 2 7.255 -0.326132 -8.26207 -0.0884964 -0.0197178 0.0316581 
15 1 7.55361 -6.38143 -7.15048 -0.00456824 -0.00831709 0.00378733 
367 1 3.35737 -5.97511 0.458233 -0.00951552 -0.000552818 0.00310871 
390 2 1.5059 -8.52095 -5.32314 0.0671937 -0.0337747 -0.0221287 
382 1 1.41484 -8.06358 -4.54697 0.00145303 -0.0100516 0.0175304 
393 2 3.92322 -8.37246 -5.03047 0.0367139 0.0385289 0.0433234 
495 2 5.46294 -9.69639 -2.84262 0.0672137 0.0677793 -0.0368498 
381 1 3.91315 -8.14146 -4.05386 -0.0335414 -0.00567612 -0.0304629 
371 1 2.56692 -7.75218 -3.63497 -0.00826513 -0.0177977 -0.00854017 
378 1 4.73404 -8.66929 -2.93737 0.014612 0.0483209 -0.0168829 
369 1 4.66941 -7.61863 -1.93409 -0.00964926 0.0125351 0.0172149 
377 1 4.93933 -7.7582 -0.482301 -0.0231599 -0.00297816 0.0126378 
389 2 5.60965 -8.65892 -0.503023 0.0553739 0.0435612 -0.0584692 
365 1 2.52648 -6.68151 -2.51733 0.0149936 0.00748537 -0.0081404 
363 1 3.87175 -6.36183 -2.06303 -0.0197491 -0.0375355 0.0111933 
27 2 7.57057 -6.94462 -6.31428 0.031284 0.105382 0.0116262 
391 2 -0.401626 -2.03557 -1.38029 -0.0323046 0.0115401 0.0198727 
392 2 -0.172706 -2.27477 -3.92979 0.144751 -0.0354309 -0.0565075 
380 1 0.223071 -3.20927 -3.39819 0.00344804 0.000963416 -0.0113579 
395 2 -0.98347 -4.53661 -4.89605 0.0210228 0.0421732 -0.0217013 
383 1 -0.0122873 -4.48006 -4.05539 8.21811e-05 -0.0203362 0.0147921 
370 1 0.726469 -3.36994 -2.1241 0.0260385 -0.0119506 0.0197338 
379 1 0.470673 -2.78197 -1.05705 -0.02636 -0.00883256 -0.0149513 
384 1 0.335405 -6.99857 -4.41976 0.00885725 -0.0197348 0.00914964 
372 1 0.815247 -5.58982 -3.79272 -0.00251818 0.0171623 0.0331589 
366 1 1.71811 -5.49911 -2.66621 0.0210815 0.0168247 0.00747534 
364 1 1.83179 -4.47371 -1.78075 -0.00741919 -0.0121741 0.026713 
362 1 2.5386 -4.31623 -0.671635 0.0137686 0.00494251 -0.0145438 
361 1 3.55285 -5.50241 -0.833006 0.00776036 -0.00649318 0.0205071 
376 1 0.915684 -2.90603 0.335678 -0.00803914 0.0224046 -0.0178485 
28 2 7.64518 -4.60252 -5.09326 0.00192277 -0.0502933 0.0768254 
16 1 7.22619 -4.21917 -6.15731 -0.00409538 0.00782748 -0.0259008 
375 1 2.05773 -4.399 1.70543 -0.00304903 -0.0349834 -0.00456248 
29 2 5.56905 -9.06371 -11.6011 -0.0702129 0.00587904 0.0256821 
388 2 0.00595221 -3.27417 0.951821 0.025222 -0.0215615 0.0334874 
386 2 4.08882 -7.76895 1.50187 -0.0458395 -0.0305319 0.0681457 
374 1 4.01807 -7.38339 0.487644 -0.00893763 -0.00133151 0.00604511 
213 2 6.98493 -11.8438 5.49466 -0.0846174 0.0656828 -0.0678063 
387 2 1.67604 -3.82721 2.66105 -0.0580077 -0.0188145 -0.00439717 
385 2 2.19074 -6.16788 2.56551 0.00355613 -0.0161481 0.0157999 
368 1 2.23363 -3.52573 0.44536 0.00722491 -0.00734403 0.0126055 
139 2 10.9223 11.4497 -4.586 -0.0272405 0.0315614 -0.00922846 
136 2 11.719 11.1753 -7.29855 -0.000650801 0.0656102 -0.0625602 
246 2 10.5163 -9.22423 17.3418 -0.0774215 -0.0139228 0.0460066 
237 1 8.66923 -10.3105 17.2689 0.0184231 0.00449106 0.0152109 
249 2 8.20877 -9.73366 16.3757 0.0133352 -0.00826348 0.090832 
36 2 4.67735 -0.093237 35.9777 0.078339 0.00508915 0.0705417 
282 2 -9.1486 -11.3615 21.5486 -0.00148251 -0.0562591 0.00847435 
135 2 -8.33139 -11.1905 21.3416 0.00700885 0.0399363 -0.0386748 
234 1 9.78968 -10.2016 17.7 -0.000708301 -0.0117015 -0.0084844 
225 1 10.3532 -10.7423 18.9146 -0.0114239 -0.00127298 -0.0147495 
233 1 11.2937 -10.1363 19.7198 -0.0234698 0.0123232 -0.0128985 
230 1 12.0469 -11.0207 20.6493 0.0216449 -0.0070003 -0.012526 
30 2 4.52294 -6.9694 34.4247 -0.0381986 0.0261951 -0.0304507 
18 1 4.83274 -6.17224 35.2739 -0.0129726 -0.0110206 -0.0296985 
33 2 4.00222 -5.03 33.9958 -0.0537636 0.0373962 0.00373359 
34 2 3.80204 -2.0338 34.5646 0.0709265 0.000495906 -0.0521004 
22 1 4.41669 -2.21085 35.303 0.0177041 0.00696154 -0.00377402 
21 1 4.62554 -4.85984 34.9392 -0.00868051 -1.45449e-06 0.0169361 
250 2 6.09785 -12.1099 17.8682 0.0119656 -0.102375 -0.0471539 
227 1 7.70318 -11.3936 17.8707 0.0115566 0.00521056 -0.00735361 
11 1 4.48793 -3.60214 35.7802 -0.00559489 0.000382945 -0.0265093 
219 1 9.57866 -11.8539 19.5417 -0.0197501 0.0122957 0.0155957 
245 2 11.4389 -9.37284 19.0306 -0.0294633 -0.062285 0.087427 
468 2 -3.74354 16.6653 -9.46464 -0.0564488 0.0404329 -0.0234647 
456 1 -3.61516 17.6311 -9.60722 -0.00730849 -0.00303826 -0.01832 
140 2 11.3491 13.3377 -1.96653 -0.033998 0.0411618 0.0104173 
466 2 -3.24509 17.9108 -7.59922 -0.0177107 0.0132124 0.0296343 
127 1 11.3567 12.2859 -5.28322 0.00931287 -0.000870252 0.000430807 
179 2 10.3297 32.1925 10.608 -0.00335786 0.0477271 -0.0116222 
444 1 -4.02844 17.829 -11.1083 0.0238079 -0.0164485 0.00553527 
438 1 -4.75524 19.1308 -11.1396 0.033942 -0.0323744 0.0167169 
454 1 -3.63547 18.5326 -8.58953 0.0221275 -0.0284001 0.0173022 
437 1 -4.76982 20.2179 -10.0415 0.0014076 0.00181953 -0.00368792 
435 1 -5.04604 21.6614 -10.2109 0.00581321 -0.00898805 -0.0377525 
433 1 -5.12607 22.0087 -11.6077 -0.0072517 -0.013217 -0.00868572 
443 1 -3.79735 20.0119 -9.11811 -0.00797775 -0.00473024 0.00527459 
441 1 -4.36317 22.6835 -9.48133 -0.00367333 0.00544409 -0.0214234 
453 1 -3.14864 20.9587 -8.67185 -0.00873614 0.00902441 -0.0125839 
450 1 -3.40975 22.3261 -8.26806 -0.00143318 0.0321562 -0.00723258 
465 2 -2.30533 20.6038 -7.99256 -0.00342894 -0.0656261 -0.0653029 
439 1 -5.07999 23.5555 -11.7348 -0.0215162 0.029655 0.000516872 
462 2 -3.1908 23.0126 -7.541 0.0030072 0.00669995 0.00980876 
187 1 11.3657 32.5431 6.45423 -0.0164634 -0.00572951 -0.00929697 
449 1 -4.64718 24.06 -9.49304 0.00198925 -0.00945987 0.0026274 
446 1 -4.71287 24.5748 -10.7951 0.00117906 0.0147483 0.00442184 
458 2 -4.57392 25.6783 -10.5052 0.0720552 0.014618 0.106992 
461 2 -4.80255 24.572 -8.59069 -0.032678 -0.0524742 0.059876 
194 1 11.0374 33.5401 7.49596 0.0088464 -0.0117659 -0.00960428 
467 2 -3.49803 15.9691 -11.7961 0.0149386 -0.0409415 -0.0315378 
199 1 11.5043 28.7629 3.334 0.0101999 0.0217282 0.00403451 
211 2 11.9788 27.8747 2.92639 0.0178788 0.0170255 -0.0867243 
212 2 9.27165 27.3177 3.16851 0.0626672 -0.0243606 -0.00364767 
190 1 10.1334 28.9335 3.78144 0.0398926 0.0111318 0.0110718 
200 1 8.82825 28.235 3.28473 0.0144144 0.0159992 -0.00722113 
215 2 6.7796 27.6521 2.86007 -0.019034 -0.0505393 0.0373572 
203 1 7.50977 28.4951 3.02077 -0.010871 0.00894495 -0.00757963 
192 1 7.67829 30.1406 3.09338 -0.00668212 -0.00992205 -0.00217924 
181 1 10.5268 32.2169 5.46712 0.00152201 -0.0100485 -0.00902338 
214 2 7.15293 34.0029 3.03582 -0.0613155 -0.000448016 -0.0101985 
182 1 10.9772 30.8953 5.10728 0.00957314 -0.00242802 0.0110269 
191 1 7.45915 33.0085 3.41519 0.00418123 -0.00147304 0.0161261 
198 1 7.79221 34.5658 6.0654 0.0171948 0.00337935 -0.0115211 
189 1 8.91728 33.7736 6.25993 -0.00479384 -0.00521365 0.010464 
201 1 6.75751 35.3734 6.14842 -0.00596573 -0.0274422 0.0113871 
204 1 6.56116 30.8155 2.74414 -0.0231982 0.00292999 0.0129325 
186 1 8.70807 31.0177 3.6911 -0.0146956 0.00709481 -0.00765685 
202 1 6.62929 32.1489 2.74296 -0.0130284 0.000105589 0.0140789 
185 1 8.76522 32.4642 3.88067 -0.0133678 -0.00981127 -0.000255537 
184 1 9.85011 30.3009 4.35911 -0.0143459 -0.0032347 0.00300932 
183 1 9.25736 32.9086 5.11089 0.0146577 0.00132071 0.00983128 
209 2 8.93453 33.724 8.54554 0.109318 -0.0840856 -0.0184045 
539 2 9.87839 31.433 10.5074 -0.0147089 -0.014493 -0.0101134 
197 1 9.62802 33.8437 7.59956 -0.0301054 0.0121702 0.000616587 
252 2 5.79255 33.7828 15.9931 0.0548182 -0.0325016 -0.113263 
457 2 -5.07917 24.8391 34.9905 0.105786 -0.0691225 -0.0372937 
436 1 -4.96371 19.5445 35.5373 -0.0107915 -0.00390652 -0.00812402 
240 1 6.33377 34.3265 17.0329 0.0151421 0.0215246 -0.0047855 
251 2 6.9786 31.6339 17.2586 -0.018977 -0.0034842 0.0127534 
231 1 11.1647 33.4731 22.2283 0.013568 0.0186454 0.0212055 
248 2 7.65472 30.7019 18.8037 0.0786383 0.0758341 -0.0245545 
247 2 8.10281 29.9335 20.7292 0.133524 0.0331914 0.0820952 
238 1 6.65763 35.8104 17.1064 -0.0142739 0.00830049 -0.0128053 
220 1 8.06429 33.6902 20.3291 0.0114931 -0.0242804 0.0354753 
226 1 7.99048 32.109 20.2813 0.0351284 0.0100355 -0.000588817 
236 1 7.11614 31.5854 19.2601 0.00769102 0.00285196 0.0210424 
239 1 7.26906 32.4014 18.0378 -0.00471715 -0.000781446 0.00139539 
221 1 8.45039 35.641 18.8382 -0.0396536 0.028989 0.00137439 
228 1 7.0042 33.8248 18.0954 -0.00512013 0.0100345 -0.00988277 
222 1 7.56579 34.6187 19.3264 -0.00346418 0.00175438 0.0151585 
235 1 8.68142 30.9693 21.0198 -0.0180402 0.00943071 -0.0167945 
218 1 9.24081 34.1769 20.9922 -0.00493095 0.0042432 -0.0115051 
232 1 9.53483 31.6624 21.9659 -0.00797325 -0.00235302 -0.0226299 
224 1 9.87218 33.0731 21.763 -0.00593133 -0.00602721 -0.0248349 
217 1 10.0064 35.3067 20.2766 0.0127908 -0.0194087 0.00276174 
244 2 10.0263 30.9543 22.5741 -0.111301 0.0686254 -0.0154697 
223 1 11.2414 35.833 21.0391 -0.010469 0.00461958 0.0127473 
452 1 -4.47964 17.4563 34.8353 -0.0147025 0.010227 -0.0135023 
463 2 -3.82458 19.2851 31.9235 0.00999621 -0.0416855 0.0308573 
459 2 -4.6202 23.4748 32.7784 -0.0073848 0.0479552 -0.0335994 
447 1 -4.95877 23.0612 33.6367 0.00591665 -0.0172122 0.00437225 
440 1 -4.66199 21.5847 33.9311 -0.0126139 0.016252 -0.0206369 
451 1 -4.01529 20.3358 31.7433 -0.00759009 -0.00789278 0.00633257 
464 2 -5.80816 18.6691 33.6507 -0.082628 -0.0909276 0.0142317 
442 1 -4.84501 18.6969 34.3489 -0.0126802 0.010286 0.00241273 
460 2 -4.61288 20.8924 30.99 -0.0268752 0.0248292 0.0442459 
448 1 -4.29721 20.7054 32.9242 0.034411 -0.023816 -0.00134863 
434 1 -4.90981 21.1234 35.4252 0.0117702 0.00423406 -0.0287189 
445 1 -4.94729 23.5502 34.8392 -0.00930051 -0.0204019 -0.0279958 
243 2 11.8728 32.7194 22.3455 -0.0120385 0.0068352 -0.0844819 
229 1 11.6579 34.8511 22.144 -0.0461077 0.00881752 -0.00286202 
455 1 -3.51584 17.0132 35.8501 -0.0130447 0.00155793 0.000391338 
71 2 -11.3326 23.828 35.1396 0.0902528 -0.0565881 0.136448 
573 2 27.5514 -4.44567 -9.26085 0.11905 -0.0406581 0.0837477 
561 1 27.729 -4.36509 -10.2642 -0.0225768 -0.00794048 -0.00115203 
562 1 26.9859 -1.97609 -10.2459 0.000804839 -0.0282372 0.00709037 
574 2 27.2815 -1.63716 -9.42299 0.0362732 9.20763e-05 0.0531778 
551 1 27.4001 -3.20512 -10.958 -0.00586697 -0.0310134 0.0159427 
570 2 29.3615 -5.49547 -9.70745 -0.087369 -0.171795 0.109661 
558 1 28.7624 -5.28688 -10.7282 0.0256898 -0.0263595 -0.0153329 
576 2 26.4591 0.178652 -10.7586 0.0251899 0.0647796 0.0357455 
144 2 14.6343 10.3228 -1.44834 0.023758 -0.0321866 0.0188866 
564 1 26.7517 -0.919689 -11.1152 0.0146114 0.0451236 -0.00891288 
549 1 29.4727 -4.63188 -11.987 -0.0158335 0.0311621 -0.0161578 
132 1 15.3756 11.0296 -2.1065 0.0116806 -0.0140428 -0.00819746 
143 2 12.6772 11.5731 -1.06204 -0.0422788 -0.0414475 0.0606096 
421 2 32.2734 -6.64064 -6.9523 -0.0799258 0.0264719 -0.0721383 
130 1 16.6807 11.1405 -2.44682 0.0069711 -0.0103111 -0.019189 
142 2 17.4366 10.6078 -2.01076 0.0132667 0.140592 -0.00630172 
569 2 31.1584 -5.70051 -11.0496 -0.00434349 0.0145098 0.132565 
141 2 18.7505 11.2456 -3.60573 -0.0388051 -0.0527221 -0.0241966 
120 1 14.2213 11.9355 -2.67969 0.0599914 -0.0141194 -0.000512805 
557 1 30.753 -5.14067 -11.9082 0.0183814 -0.0124731 0.0153559 
85 1 35.7366 -11.1862 13.7106 0.0127074 0.000364488 0.020133 
242 2 12.92 -10.8894 20.9166 -0.0122671 0.0325745 0.0596363 
106 2 34.5489 -10.1092 21.2982 0.00586146 -0.0433304 0.012496 
96 1 34.6091 -11.6635 20.5792 0.00382402 -0.000841094 0.0237329 
575 2 25.5485 0.799196 34.8097 -0.0412747 0.0440438 0.0674186 
94 1 35.446 -10.4643 20.8657 0.0158315 0.0164802 0.0187294 
568 2 29.3054 -1.84937 29.8946 0.09818 0.0577119 -0.0275346 
571 2 27.0601 0.0853442 30.4895 0.0117967 -0.0488119 -0.0321072 
566 2 32.5652 -4.81832 34.9956 -0.0435959 -0.0360428 0.105727 
556 1 28.57 -1.67371 30.7031 -0.00494147 0.00689298 0.0136563 
559 1 27.6764 -0.629735 31.1426 -0.00582606 0.0129664 0.0184874 
548 1 29.0354 -2.55537 31.5059 -0.00657498 0.0212882 -0.0378973 
550 1 27.4167 -0.505154 32.4811 -0.00307141 -0.0210468 -0.0167467 
560 1 26.8373 0.440313 33.3785 0.00238519 0.0282081 0.0127932 
542 1 28.5566 -2.56231 32.9295 0.0114096 -0.0167686 0.00866149 
563 1 26.344 0.0883345 34.6135 -0.00350147 0.00826203 0.00767695 
541 1 29.2607 -3.2733 34.0645 0.000796322 0.0343897 0.00883953 
552 1 26.5872 -1.11163 35.2846 0.00719669 0.0144728 0.0109038 
544 1 27.7522 -1.65174 33.5284 -0.0131923 0.0168311 -0.010459 
545 1 27.8216 -3.30511 35.5623 0.00361479 9.31795e-05 -0.0166169 
543 1 28.8606 -4.09669 35.1167 -0.00586819 0.00918419 -0.00382379 
546 1 27.5043 -2.1217 34.9072 -0.00623697 -0.00925353 0.0140746 
572 2 26.2897 1.47494 33.2649 0.0236108 0.0443502 -0.0836387 
567 2 31.2098 -2.48382 30.7763 0.0265165 -0.128759 0.0201616 
565 2 32.3272 -2.83357 32.6339 -0.0506099 0.0637136 0.0092306 
554 1 31.5192 -4.39981 35.2359 0.0247691 0.00735465 0.024453 
553 1 31.3648 -3.12835 32.7373 -0.0110971 -0.0170067 0.00727264 
547 1 30.7652 -3.64509 34.1196 -0.000131762 0.00213587 0.010194 
555 1 30.5069 -2.71985 31.5866 -0.000861018 0.019545 0.00699393 
97 2 35.7867 -10.4531 12.713 -0.0157074 0.0982143 -0.0136058 
125 1 17.8606 14.8984 -6.97402 0.0214245 0.02051 0.0218511 
122 1 16.9878 14.9947 -8.1313 0.0173291 -0.0044825 0.0142893 
134 2 17.1345 16.0622 -8.77562 0.00880887 -0.0433082 0.0212978 
115 1 15.9118 14.1172 -7.71865 -0.0213269 0.000127522 0.0145939 
109 1 15.3323 14.0758 -6.32182 0.0192006 0.0183782 0.010387 
110 1 13.9674 13.3817 -6.09318 0.010764 0.00921989 0.00606427 
123 1 13.6659 13.1641 -8.54828 -0.0298955 0.00164672 0.0135736 
121 1 15.0174 13.6161 -8.82768 0.00312085 0.00773288 -0.0200969 
116 1 13.406 13.0561 -7.10275 0.00161662 -0.0207412 0.00571685 
133 2 14.6096 14.0691 -10.0054 0.0271899 -0.0481386 -0.0165265 
137 2 18.6035 15.5824 -7.42597 0.108103 0.0352409 0.0203865 
117 1 17.7014 13.8828 -5.88913 0.0020654 -0.000397806 -0.0258792 
111 1 16.3391 13.8337 -5.39651 -0.020118 -0.0209906 0.00890059 
129 1 18.2214 12.0964 -4.18492 -0.00185192 -0.0260696 0.0125961 
119 1 16.9163 12.314 -3.41716 0.00811425 -0.0285521 -0.00491775 
113 1 15.9642 13.0224 -4.14546 -0.0334903 0.0146621 0.00216692 
112 1 13.5566 12.6634 -4.71337 0.00266015 0.00906739 -0.00766424 
114 1 14.571 12.8141 -3.74978 0.0187866 -0.00734628 -0.00605659 
205 2 13.0861 31.3508 7.94816 -0.014749 0.00819967 -0.0422537 
131 1 12.9986 12.2243 -2.03544 -0.0201889 0.0160334 -0.00931949 
118 1 12.2119 12.7154 -4.10978 0.027884 -0.0130962 0.00476603 
206 2 12.2001 34.1889 7.69297 -0.129876 -0.046464 0.0908323 
193 1 12.6804 31.891 6.83981 -0.00627122 -0.0024934 0.0128469 
207 2 14.5509 30.9248 5.93567 0.015276 -0.0201746 0.00196289 
126 1 18.4358 12.7369 -5.39097 0.0161865 -0.0137435 -0.00386105 
128 1 12.1213 13.1799 -2.67056 -0.0152185 0.00667408 -0.00429437 
138 2 19.5818 12.3085 -5.59034 0.0741705 -0.0702528 -0.0100093 
483 1 31.8083 24.1458 -0.516542 -0.00289662 0.00887243 0.0017233 
496 2 32.924 22.189 1.25346 0.08008 0.0862218 -0.0475314 
476 1 31.4326 23.0897 0.805916 0.000963336 0.00217866 -0.00398927 
482 1 29.3751 26.5406 -0.700475 0.00104426 0.011839 0.000897974 
108 2 30.1929 27.1049 -1.03809 0.196531 0.00745042 0.0270661 
494 2 27.3279 27.6922 -0.949036 0.00994289 -0.104676 0.0397066 
485 1 28.0489 27.2017 -0.290918 -0.00135713 -0.0168831 -0.000239832 
481 1 31.2298 25.1268 -0.979946 0.00680275 -0.0149904 0.0245306 
493 2 31.7028 25.8939 -1.63814 0.0410956 0.038878 0.0199554 
475 1 29.7234 25.2681 -0.285946 0.00662431 -0.0130822 0.00451585 
486 1 28.2396 18.1064 3.45128 0.00489567 0.00143209 -0.0086806 
489 1 27.087 18.3618 2.89075 0.00885928 -0.00229653 0.00304723 
492 1 25.8609 19.0639 2.80085 0.00897611 -0.00167195 -0.0228171 
502 2 24.9272 18.8493 3.45094 0.0807656 0.0972786 0.0254974 
490 1 26.4639 20.272 2.54924 0.0205944 -0.00693326 -0.00830677 
473 1 28.126 23.3217 2.3601 -0.00683665 0.0241324 0.0127964 
474 1 27.0695 22.7339 1.79992 -0.00778396 0.025091 0.00324689 
480 1 26.7667 21.4617 2.19192 -0.00747743 -0.0151077 -0.0126472 
472 1 29.2968 22.6974 1.99524 0.00170761 0.00584862 0.0155225 
470 1 29.9942 23.4132 1.00076 0.00938049 0.00307486 -0.0151736 
501 2 26.5336 24.8771 3.40498 -0.0626067 0.0411466 -0.0968655 
484 1 31.9522 22.1434 1.62593 -0.00907908 -0.00190064 -2.96322e-05 
503 2 29.0309 20.2857 1.77145 -0.00634811 0.0048491 -0.0727892 
499 2 31.5636 20.1785 1.37484 -0.0057557 0.000769694 0.00436462 
487 1 30.9852 20.9984 1.60301 0.0263643 0.0152251 -0.0100165 
478 1 29.6827 21.3076 1.60459 -0.028753 -2.00135e-05 -0.0115476 
208 2 13.7207 29.6913 3.285 -0.00401193 0.0289071 -0.0065929 
196 1 12.6312 29.4954 3.89137 -0.0131316 -0.010676 0.00865984 
469 1 29.0156 24.839 0.896356 -0.00598462 0.0415418 -0.00504611 
479 1 27.6869 24.7861 2.87397 -0.0103367 -0.00341405 0.0113342 
471 1 28.0729 25.467 1.56245 -0.0130557 0.00827231 0.00602216 
497 2 28.8232 25.0961 3.21581 -0.0579396 -0.0295671 -0.0149653 
477 1 27.4331 26.5772 0.807699 -0.00166962 0.000299247 0.0016628 
488 1 25.7371 26.6153 0.655053 0.00818957 0.00503837 -0.0145648 
498 2 23.7749 26.573 0.205956 -0.0093927 -0.081054 -0.0154727 
491 1 24.6901 26.4341 -0.0343996 -0.00442445 0.0350519 -0.0235768 
500 2 24.8992 25.5182 -0.925509 -0.0316953 -0.0374215 -0.0376289 
188 1 12.3476 30.479 4.76342 -0.0400212 0.0268842 0.0262606 
195 1 13.2656 31.0464 5.90296 -0.0066556 0.00368024 0.00433155 
124 1 11.9438 12.1623 -6.64764 -0.0208635 0.0138305 0.00465828 
510 1 24.3274 17.4988 14.945 0.0110875 -0.00643877 0.00264549 
515 1 22.8985 15.4227 14.9227 0.0153211 0.0131818 -0.0251451 
509 1 24.0965 16.1428 15.2506 0.017984 0.00624042 -0.00647478 
507 1 24.7933 15.2652 16.2947 0.01983 0.00553076 0.00989547 
513 1 24.4328 13.9121 16.7731 0.0026108 0.00235673 -0.00394875 
522 1 23.087 13.5422 16.2619 0.00928665 0.00816053 0.0192543 
521 1 24.7707 13.1301 18.0927 0.00437537 0.0307334 0.0293984 
525 1 22.5938 14.22 15.4636 -0.0177411 -0.0134079 0.0116054 
526 1 21.9165 16.0321 13.9297 -0.00337101 -0.0162623 0.0154192 
528 1 22.382 17.0634 13.2764 -0.00314067 -0.0175099 -0.0180754 
516 1 23.2899 17.8906 13.8922 0.0274368 0.000111712 -0.0091846 
88 1 34.2723 33.4995 15.0663 -0.0156155 0.0246638 -0.0228246 
538 2 21.4089 15.3663 13.2906 -0.00969379 0.0573143 0.045208 
508 1 25.2431 17.9708 15.5499 0.0200524 0.0165011 -0.021561 
505 1 25.4095 16.0612 17.3333 -0.0113434 0.00968064 0.0308774 
518 1 25.0105 14.1182 19.1064 0.0373208 -0.00898555 0.0063183 
506 1 25.41 17.4962 16.763 -0.00872617 0.0135495 0.00271828 
527 1 23.6684 19.2232 13.2451 0.0233911 -0.0131225 -0.0112675 
536 2 24.792 21.0383 13.5479 0.0780033 0.0588209 0.0462039 
514 1 25.3667 19.429 15.2212 0.00253666 0.0124306 0.0111032 
524 1 24.7457 19.9173 13.8728 -0.0258232 -0.0198284 0.0038341 
523 1 26.1355 20.0681 16.3668 0.000727933 -0.000414237 0.0133676 
535 2 26.3355 20.9292 15.898 0.00420655 0.00977945 -0.0411599 
520 1 26.5128 19.4643 17.5617 0.0400096 0.0188523 0.00757687 
82 1 35.2192 33.3295 17.3749 0.0210135 0.00941197 -0.025243 
91 1 34.929 32.6086 15.9537 -0.0200953 0.0443708 0.0166479 
80 1 34.9265 34.8441 15.0739 -0.020163 0.00378498 0.0184851 
533 2 25.322 12.3142 17.8946 0.0130343 -0.0427966 0.00571707 
107 2 33.0459 34.943 19.4083 0.0134281 -0.00905824 0.0281564 
99 2 34.3905 34.9907 13.2005 -0.0374246 -0.0173936 0.00371243 
512 1 26.2955 18.0672 17.8528 -0.00730987 -0.00915522 -0.0157092 
511 1 25.2562 15.4667 18.7583 -0.0124167 -0.0119082 -0.0160505 
530 2 25.2441 13.7865 20.1303 -0.0691211 0.02659 0.0302051 
517 1 25.526 16.511 19.8201 0.0295582 0.00405996 0.0193401 
519 1 26.4648 17.4183 19.2161 0.00450575 0.0124022 -0.0154903 
529 2 25.8497 16.1645 20.9413 0.0250176 0.0587601 -0.0383913 
531 2 27.0657 18.3259 19.6533 -0.042232 0.0307911 0.0526909 
532 2 26.8721 19.7757 18.6847 -0.0143294 0.0277335 0.0668592 
100 2 33.192 33.2975 14.7582 0.0123323 -0.0182045 -0.00292239 
534 2 22.6624 12.5489 16.5244 -0.0469339 0.0176159 0.0495445 
241 2 12.5288 35.0502 22.8587 0.0086649 -0.062714 0.0400176 
92 1 34.0401 33.6941 17.7991 0.00563118 0.0134489 0.002285 
84 1 35.1517 35.2853 19.4833 -0.019315 -0.00557686 -0.00508253 
95 1 34.0551 34.5918 18.933 -0.00960724 -0.00350224 0.000107908 
103 2 34.7142 31.5429 15.7739 0.108293 0.0164108 -0.0162678 
104 2 33.093 33.0611 17.632 -0.102422 0.0282241 0.0334888 
87 1 34.8661 35.7784 13.9371 -0.0211533 0.000333212 -0.010211 
46 1 44.6466 0.31803 -11.1333 2.77946e-06 -0.00230754 0.0126449 
69 2 47.201 -6.12309 -9.00652 0.109782 0.059394 0.00378568 
70 2 42.2959 -2.51491 -7.9543 0.0386187 0.00878917 -0.058397 
40 1 44.8078 -1.19566 -11.4252 -0.0261168 0.00201592 -0.00359631 
53 1 47.8783 -5.23368 -11.5471 0.00994063 0.0201373 0.00974579 
60 1 43.1598 -2.55282 -8.66312 -0.00353806 -0.0178228 0.00388485 
54 1 46.5026 -5.55715 -9.55701 0.0113198 -0.00906498 -0.0062501 
39 1 45.7339 -3.89822 -11.3764 -0.00900582 -0.0037281 0.0105429 
45 1 46.7549 -4.93877 -10.7339 -0.0164637 -0.0204802 0.00388064 
41 1 44.6834 -3.52581 -10.5824 0.0214365 0.0119206 -0.0124835 
57 1 45.1356 -5.0954 -8.94071 -0.0127213 -0.0266597 -0.0289722 
66 2 45.1898 -5.52256 -8.04465 0.0653551 0.0388136 -0.0968214 
47 1 44.084 -4.52878 -9.80049 0.000432495 0.00927227 -0.00855158 
58 1 43.3711 -3.80817 -9.01411 -0.0362744 0.0153363 0.0101881 
42 1 44.246 -2.18504 -10.6307 0.00366024 -0.00471821 0.036301 
48 1 43.6998 -1.45676 -9.55776 0.0038065 -0.00756451 0.0201248 
56 1 43.1696 -0.0453733 -9.30001 -0.0286669 -0.00672206 0.00036835 
288 2 47.8951 -2.75877 -8.6822 -0.0392003 0.00895718 0.012515 
287 2 45.7602 -1.92436 -8.22718 -0.0360037 -0.0715361 -0.0275932 
264 1 47.4899 -1.1081 -7.7563 -0.0116423 -0.00231165 0.00174794 
275 1 46.0261 -1.04567 -7.6401 0.000396672 0.000649327 0.0146836 
259 1 49.9696 2.2172 -4.19769 0.0017159 0.0128035 0.00268792 
276 1 48.2699 -2.34397 -7.9103 0.00610542 0.0185566 -0.0195187 
286 2 50.3649 -2.32199 -8.90976 -0.0812172 -0.0565776 0.018316 
274 1 49.7215 -1.98889 -7.9474 0.00187217 -0.0212452 -0.00482715 
285 2 51.5183 0.0762149 -9.46342 0.0287792 -0.010697 0.0221219 
263 1 49.9225 -0.51754 -7.78395 -0.0143109 0.00368436 -0.028857 
273 1 51.122 0.245956 -8.40703 0.0217785 -0.0163616 0.000209481 
72 2 42.4357 0.224317 -8.52109 -0.00969996 -0.0269913 -0.020136 
272 1 45.3663 0.198404 -7.25971 -0.00519515 -0.0183296 0.00425558 
284 2 44.3309 0.248839 -7.48255 0.0260016 0.0592785 0.033763 
258 1 48.1057 -0.0471354 -6.96783 0.00111734 -0.00140082 0.0323788 
262 1 46.1739 1.13408 -6.74808 0.00523633 -0.00244686 0.0325942 
271 1 45.448 2.43192 -6.71147 0.0118692 0.000183955 0.00951686 
283 2 44.4687 2.07079 -7.10324 -0.0496657 0.0350234 0.0518972 
59 1 43.7073 0.767361 -10.0988 0.0263168 0.0187402 -0.00221959 
68 2 43.3066 1.55425 -10.5855 0.0180141 0.0202459 -0.0583758 
257 1 49.4781 0.075389 -6.63072 0.0167699 0.0163005 -0.0126871 
270 1 52.0108 0.554373 -7.19325 0.00614874 -0.022508 0.0122554 
269 1 52.3825 1.4215 -4.78305 0.0127189 -0.00256784 0.0185896 
65 2 48.4227 -6.1761 -11.5014 0.053774 -0.0242661 -0.0157934 
256 1 47.5474 1.03494 -6.28143 0.0118298 -0.0129215 0.0331907 
254 1 47.9899 2.01264 -5.49714 -0.0107793 -0.0121925 -0.0185578 
268 1 45.7711 2.70741 -5.28945 0.0121967 -0.00757505 -0.014572 
260 1 47.1126 2.95902 -4.90643 -0.0225139 -0.000663961 -0.0114089 
280 2 44.9617 2.98024 -4.55706 0.0878774 -0.0523132 0.026307 
267 1 47.9513 3.50864 -3.64713 0.0145518 0.0223401 0.0119011 
279 2 47.0576 3.7044 -3.13073 -0.0927858 -0.0259819 -0.0701609 
255 1 50.2448 0.823761 -5.76505 0.0053636 0.00101629 0.00177561 
281 2 53.3643 1.12479 -4.31164 0.00565489 -0.0372449 0.0597648 
266 1 51.2752 1.8496 -3.83273 0.0154182 -0.00668954 -0.0182784 
277 2 49.5869 3.25893 -2.50784 0.0621899 0.0254362 -0.0954784 
253 1 49.4131 1.9303 -5.437 0.00602814 -0.030666 0.0073628 
265 1 48.9109 2.65786 -3.09751 -0.031605 -0.0446549 0.0122515 
261 1 51.6606 0.600324 -5.84994 0.00499121 0.0172257 -0.017698 
278 2 51.4964 2.35714 -2.85155 -0.0388279 -0.0442638 0.123244 
426 2 48.599 11.3218 -10.1734 -0.0214036 -0.0310811 0.0244804 
37 1 46.5223 -2.84088 -11.7902 0.0119602 0.0181215 0.00264384 
38 1 46.0606 -1.5825 -12.0159 0.0273235 -0.00190816 -0.0120483 
102 2 38.0076 -7.30815 18.0672 0.0631191 0.0184966 0.0480024 
101 2 39.0087 -9.22822 16.0606 0.0356951 -0.0349362 -0.065218 
90 1 37.2447 -8.23295 17.8658 -0.000462337 -0.00317021 0.0142777 
89 1 37.9327 -9.16947 15.5565 -0.00537319 0.0284484 -0.00113386 
81 1 37.0786 -9.20434 16.8251 -0.0178779 0.0107037 0.00508001 
86 1 37.7063 -9.95315 14.2951 0.00191134 0.00950255 0.00773498 
98 2 37.783 -9.79742 13.2498 -0.050217 0.110015 -0.10079 
75 1 36.7781 -10.7009 17.2775 -0.0278136 -0.00296314 0.0116061 
77 1 36.6659 -11.2342 18.6265 0.0128441 -0.015172 -0.0111976 
79 1 36.6801 -10.8479 14.6443 0.00565957 0.0168071 -0.0071141 
93 1 36.732 -8.76904 19.1081 -0.0107976 0.00183667 -0.0137987 
83 1 36.234 -10.1289 19.6149 -0.0152952 -0.00026994 -0.00909408 
176 2 43.2786 11.4745 24.287 -0.0227343 0.0170632 0.0508516 
537 2 41.5206 -7.99184 26.8179 0.0260039 -0.0260269 0.0704369 
210 2 57.5162 8.41961 31.1618 -0.0202903 -0.0191546 -0.0755154 
175 2 44.9375 10.4473 25.8199 -0.0280164 0.0457289 0.0539441 
163 1 45.4502 11.5168 25.8952 0.00945421 -0.000239514 -0.0167948 
172 2 47.1247 10.9662 27.0067 0.0797437 -0.0326116 0.0522829 
540 2 41.0217 -8.58664 26.7475 -0.0961779 -0.00332266 -0.139649 
44 1 46.8022 -0.742487 34.9847 -0.0154519 0.0086595 -0.0136823 
50 1 48.0019 -4.24296 35.6684 0.0116728 0.0159683 -0.00927359 
43 1 47.3815 -3.15302 35.2227 -0.00173829 0.00623339 0.0204087 
52 1 45.9589 0.456278 34.737 0.0105502 0.0205447 -0.0101752 
160 1 46.3924 11.6782 26.7356 -0.00842176 0.0108248 -0.0169182 
63 2 48.4106 -0.414914 33.119 0.0164528 -0.12216 0.0381734 
64 2 46.2368 0.75271 33.5941 -0.0921263 0.0719964 0.16406 
51 1 47.7392 -1.15655 33.8651 -0.00122903 0.00427235 0.00126015 
73 1 36.3515 -11.3613 16.0889 -0.00670547 -0.0096861 -0.0171607 
61 2 49.1213 -2.5603 33.6387 0.0302979 0.0304809 -0.126492 
62 2 49.048 -4.4404 34.8939 0.0933407 -0.0299865 0.0408796 
49 1 48.2264 -2.43843 34.2318 0.0286289 -0.000487982 -0.0220047 
55 1 44.9708 1.17951 35.5988 -0.0200719 0.0279928 0.0161537 
67 2 44.2826 2.09581 35.1453 0.0746231 0.132568 -0.0470497 
415 1 42.9833 17.227 -11.2713 -0.00617669 -0.0140703 -0.0146451 
406 1 43.1615 16.0097 -10.4136 0.000298543 0.0243544 -0.00341798 
416 1 42.0377 15.6991 -9.49845 -0.0278452 -0.00451174 -0.0105734 
398 1 45.3829 15.6096 -11.3831 -0.02458 0.00230586 -0.00759726 
400 1 44.5544 15.5856 -10.1869 -0.012283 -0.0255763 0.00436383 
419 1 42.5914 14.8011 -8.467 -0.03019 0.00594934 -0.0172288 
408 1 44.0422 14.7376 -7.95121 -0.0204675 0.00519858 0.0163013 
402 1 45.0811 15.2336 -8.80974 -0.00223465 0.0172107 -0.0166088 
397 1 45.9666 14.3887 -11.8063 0.0177917 -0.0116175 0.016016 
420 1 44.1249 13.9284 -6.76085 -0.00374156 0.000999998 0.0208682 
399 1 46.389 13.9995 -10.6298 0.00114074 -0.0112246 -0.0114849 
401 1 46.072 14.1304 -9.32057 0.00932817 -0.00352313 -0.0139331 
429 2 46.3337 13.4969 -6.97969 0.0377566 -0.0815743 -0.00958349 
431 2 41.8627 14.5543 -7.72256 -0.068089 0.0301382 -0.0277106 
407 1 46.6668 13.4336 -8.09237 -0.00236845 0.0110659 0.00685471 
428 2 41.8504 16.4995 -8.84475 -0.0180736 -0.0111922 0.118606 
405 1 47.3165 13.0173 -10.9459 -0.0229151 -0.0209835 -0.0193184 
417 1 47.5068 12.6473 -8.78097 -0.0404072 -0.0235752 0.0200238 
414 1 48.0303 12.1047 -9.94585 0.0130126 -0.0109721 0.00591069 
321 2 59.1969 33.7639 3.39634 0.0847459 0.0601501 -0.0282463 
177 2 37.2996 16.6501 1.98087 -0.0305434 -0.0698833 0.0497622 
427 2 42.0621 17.6293 -11.8603 -0.0429299 -0.0257767 -0.0887265 
418 1 43.7685 13.1375 -5.69653 0.0120218 -0.0126651 -0.0122148 
432 2 42.8803 12.675 -5.34081 -0.0349599 -0.000106871 -0.116423 
430 2 44.8839 13.1566 -5.29663 0.0598441 0.0922859 0.0107464 
322 2 59.8749 34.3143 5.78811 0.0320791 0.0320912 0.0103636 
412 1 44.2011 17.4226 35.8945 -0.000311277 0.00241541 0.000475971 
78 1 36.3516 35.2229 18.7186 -0.0190093 0.0219823 0.0216867 
423 2 47.5157 15.3625 33.0696 0.0598309 -0.0224449 0.0181949 
409 1 46.6207 15.095 33.8458 -0.00395579 0.00675516 -0.00598146 
410 1 46.9867 12.753 34.7267 -0.0262928 -0.00591327 0.0066787 
424 2 44.4719 18.2682 35.1372 0.0147052 0.0818162 -0.0389031 
411 1 45.7548 16.0118 34.2378 0.0175712 0.00445627 -0.00540255 