ITEM: TIMESTEP
200000
ITEM: NUMBER OF ATOMS
576
ITEM: BOX BOUNDS pp pp pp
-1.2000000000000000e+01 8.4000000000000000e+01
-1.2000000000000000e+01 3.6000000000000000e+01
-1.2000000000000000e+01 3.6000000000000000e+01
ITEM: ATOMS id type x y z vx vy vz 
66 2 7.4097 -11.0118 -8.49609 0.130923 -0.0118649 -0.061242 
47 1 8.97175 -10.3332 -11.4473 -0.0249944 -0.00922561 -0.00188741 
57 1 8.56441 -10.0917 -10.3033 -0.00785838 -0.0068547 0.0175507 
69 2 8.79184 -9.16965 -9.73391 0.00831772 -0.0336052 -0.0058524 
54 1 7.64984 -11.1412 -9.44342 -0.00688728 0.00602535 -0.00255057 
139 2 -7.93779 1.77933 -0.3513 -0.0668221 -0.0322843 -0.0494017 
140 2 -6.87757 4.94573 -1.16277 -0.0537065 0.0211741 -0.000408311 
128 1 -7.79158 4.98515 -0.864381 0.00365325 -0.0233983 0.00388026 
131 1 -8.66971 5.97082 -1.43663 -0.0175945 0.00271761 0.00285279 
144 2 -10.4105 8.35237 -2.38393 -0.066758 0.0245358 0.0114148 
132 1 -10.4409 7.69729 -1.47426 -0.00501614 -0.0158912 0.0247343 
143 2 -7.60133 6.43892 -1.94224 0.0089649 -0.0106281 0.128058 
120 1 -9.93737 6.3386 -1.16953 0.00364039 0.00987145 0.0115862 
130 1 -11.6357 7.99811 -0.881886 0.00840098 0.00189634 0.026788 
142 2 -11.8382 9.09759 -1.19138 -0.0262454 -0.140972 0.00408507 
462 2 3.43173 -0.212666 3.44376 0.0135346 -0.053796 -0.00912246 
465 2 0.452577 -0.426915 5.04689 0.0850928 -0.131984 -0.00571153 
127 1 -8.08843 2.74161 0.418402 0.00109091 -7.16477e-05 0.00259926 
112 1 -9.69917 4.65379 0.584456 0.0127856 -0.00709083 0.00651478 
118 1 -8.62713 4.0055 0.0400832 -0.00254459 -0.0269168 0.0008327 
114 1 -10.5482 5.76381 0.00124164 0.00252551 -0.025805 0.0174811 
124 1 -8.83675 1.74598 1.23011 0.00601545 0.0241452 0.0083757 
110 1 -10.1792 4.00609 1.80481 -0.0017815 0.0159222 0.0074066 
116 1 -9.8678 2.46936 2.02775 -0.0148823 0.00444517 -0.00340485 
136 2 -8.67389 0.598337 1.37134 0.0871953 0.0851334 -0.0506978 
109 1 -11.2491 4.69874 2.43973 -0.0161343 0.0244283 0.018371 
115 1 -11.6027 3.92845 3.7058 0.00848106 -0.00471546 0.00830981 
135 2 -9.48581 0.918303 3.07659 -0.0542993 0.0116798 0.0711715 
121 1 -11.2633 2.40752 3.76298 -0.00929231 -0.0435237 -0.00286143 
123 1 -10.2513 1.68638 3.29111 -0.0106627 -0.0190973 0.00450611 
133 2 -11.9577 1.6873 4.32887 0.0721375 0.142504 0.0747364 
466 2 -1.85988 1.13831 3.72596 0.016001 -0.078473 0.0643176 
454 1 -1.17271 1.56892 4.59514 0.0128975 -0.00323599 0.00758006 
444 1 -1.11899 4.09854 5.27822 -0.00195567 -0.0152812 0.00672906 
456 1 -1.89391 2.74856 5.11272 0.0196091 0.027757 0.0218617 
468 2 -2.76756 2.7277 4.41676 0.075967 0.0239425 -0.0747619 
455 1 -1.33666 5.41283 5.08321 -0.0145326 -0.0208429 -0.0148308 
467 2 -2.32961 5.37722 4.66273 0.0108042 0.0301922 -0.0357907 
461 2 5.34531 0.140658 4.51017 0.100712 -0.0194971 0.0199097 
438 1 0.371086 3.85506 5.4657 0.0149297 -0.0187219 0.0206957 
443 1 0.272858 1.35255 4.83002 -0.000512226 0.00612503 0.0111977 
453 1 1.20193 0.228129 4.24529 0.0300528 -0.00801655 0.0129694 
437 1 0.971812 2.64396 5.14443 0.0163953 -0.00129165 0.00598743 
450 1 2.59856 0.339422 3.99993 0.0207249 0.00238973 0.0224086 
436 1 1.3394 4.83651 5.8757 -0.00830861 -0.0047751 -0.0142965 
441 1 3.35406 1.52259 4.42427 -0.0290914 0.000752674 0.00797257 
433 1 3.4129 3.29863 5.76111 -0.00205351 0.0314079 -0.00046639 
434 1 2.77212 4.55615 5.5362 0.00250164 0.00945436 -0.00659036 
435 1 2.37424 2.37374 5.17805 0.0310426 0.00954003 -0.000309704 
449 1 4.71102 1.06491 4.70905 0.00995069 0.0173588 0.00458747 
439 1 4.82601 3.3666 5.28419 0.0223818 -0.0119362 -0.00370321 
446 1 5.534 2.34844 4.64407 -0.00337554 -0.00367287 0.0132725 
458 2 6.48268 2.28033 5.08073 -0.0411019 -0.0188663 -0.10933 
111 1 -11.7513 6.05953 1.99981 0.00832596 0.0111964 0.0130603 
113 1 -11.3736 6.45876 0.80521 0.0145106 -0.0180204 -0.00379886 
452 1 -0.667128 6.52045 5.83356 0.020176 0.000624887 0.00827791 
464 2 -0.80816 7.5668 5.42307 0.0227834 0.0878595 0.0840317 
451 1 1.7178 7.29605 5.75424 -0.0115098 -0.00654061 -0.0110456 
457 2 5.87503 3.19445 7.21702 0.037423 -0.0839527 0.0434842 
445 1 5.35061 4.0031 6.54168 -0.0108385 0.0100824 0.0171807 
447 1 4.85428 5.1299 7.14325 -0.00196737 -0.00737465 -0.0215679 
440 1 3.61484 5.59117 6.34167 -0.00195113 -0.00228309 0.0033862 
459 2 5.17619 5.73727 7.94696 0.0595279 0.0226483 -0.0109748 
460 2 3.37013 7.71269 6.65658 -0.0081531 0.0288715 0.0926506 
448 1 3.12122 6.87828 6.03492 -0.000815967 -0.0157494 -0.0194947 
463 2 1.04542 8.15539 6.2277 -0.040275 0.0303795 -0.0446378 
442 1 0.735042 6.28216 6.15021 0.0205034 0.00588119 0.00955254 
286 2 3.18715 5.4643 18.8446 -0.0572909 0.0760112 -0.00588328 
261 1 1.85076 3.51623 23.8042 0.0212047 -0.0105738 -0.0106932 
270 1 1.74614 2.85304 22.4064 0.0121311 0.0146084 0.0184467 
282 2 1.43077 1.81577 22.2583 -0.0031702 0.0117212 0.00118002 
273 1 1.98208 3.53031 21.3613 -0.0134504 -0.0186367 0.0251596 
263 1 2.37909 5.03085 21.2595 -0.0306237 0.0106563 0.000991651 
255 1 2.43378 4.88824 23.7504 -0.0183648 -0.0085316 0.0193711 
285 2 1.64857 3.00363 20.412 -0.00290174 0.0224104 0.021899 
257 1 2.79414 5.47496 22.5912 -0.00655622 0.0072023 -0.00155936 
274 1 3.3458 5.45584 20.1236 -0.0136695 -0.0106414 0.0187852 
258 1 3.97924 6.30194 22.8513 0.0175401 -0.00725035 -0.00530871 
272 1 4.44631 9.21365 22.792 0.0303084 -0.0193518 0.0174245 
256 1 4.06213 7.14043 23.9132 0.0268166 -0.0199258 0.00243965 
262 1 3.90814 8.61908 23.8737 -0.00307372 0.00764377 0.00878372 
264 1 4.39115 7.05256 21.8307 -0.00310792 0.0116524 0.00583081 
275 1 4.79156 8.41538 21.6984 -0.0117404 -0.0221775 0.0083052 
276 1 4.61076 6.12533 20.689 -0.0116914 0.0266306 0.00370375 
288 2 5.58671 6.05641 20.2441 -0.00870064 0.0766778 0.0114561 
287 2 5.35754 8.92792 20.8926 -0.0350959 -0.0513302 -0.0227359 
284 2 5.07735 10.1754 22.4372 0.0380187 -0.120728 0.00300465 
269 1 0.93512 3.03319 24.8419 0.00891189 0.0066949 -0.0113218 
281 2 0.210866 2.24791 24.8573 0.0218141 -0.0383003 0.0919642 
253 1 2.61065 5.56753 25.0319 -0.00781734 0.0167388 0.0115125 
278 2 0.292477 3.61732 26.9156 0.0984009 0.004241 0.0390874 
259 1 1.79116 5.05582 25.9328 -0.0126034 0.0207391 0.00916232 
266 1 0.967123 3.9258 25.8897 -0.00921193 -0.00347751 -0.00659895 
277 2 2.39543 4.89478 28.0567 0.0289734 0.0465401 -0.000289017 
265 1 2.58159 5.19725 27.2423 0.00591668 -0.0253771 0.0168982 
254 1 3.33542 6.76922 25.1077 -0.00814452 0.00553078 0.00350446 
271 1 3.80764 9.56891 24.7566 0.0219777 -0.00676675 -0.0172151 
260 1 3.2604 7.69751 26.113 -0.0269161 0.000217266 0.0202259 
268 1 3.23688 9.09685 26.1418 -0.00465426 -0.0328066 0.0091433 
267 1 2.98172 6.82914 27.3951 0.0155657 0.00371894 -0.00486907 
283 2 4.0287 10.5393 24.6435 -0.0670012 0.0151229 -0.0132347 
279 2 3.50408 7.78177 27.9744 -0.0708171 0.104206 -0.0242611 
280 2 3.66078 9.70483 26.9282 -0.0711692 0.018841 0.0240417 
42 1 7.87574 -11.1527 34.2261 -0.00496524 -0.00479135 -0.0198801 
72 2 10.3539 -9.14403 33.8541 0.0376637 -0.119537 -0.0441686 
59 1 8.07954 -10.7086 32.2005 0.00875034 -0.00494244 -0.0272059 
60 1 9.4686 -9.52408 34.0712 -0.00106 -0.00222988 -0.0111228 
68 2 7.28342 -11.2604 30.1162 -0.080072 -0.0438087 -0.0190121 
56 1 7.42277 -11.5049 31.2752 -0.0130141 -0.0101146 -0.0020895 
48 1 8.22743 -10.127 33.3051 -0.0232868 0.0106398 -0.00296838 
58 1 9.58976 -9.41526 35.518 0.00226919 0.0151334 -0.00905566 
41 1 8.323 -11.4652 35.6167 -0.00222028 -0.00787087 -0.0110717 
70 2 10.1484 -8.51418 35.9156 0.0308816 -0.00158429 -0.0663772 
61 2 7.50124 31.2447 -11.1207 0.103689 -0.0908138 0.1189 
62 2 8.24445 32.5118 -9.78767 -0.0444824 0.00367377 -0.00638969 
50 1 7.37436 33.1448 -9.81986 0.0094622 -0.00938167 0.0334467 
43 1 7.47247 33.2235 -11.3973 0.0254061 -0.00728495 -0.00619796 
39 1 8.12452 35.5156 -11.3852 -0.00396513 -0.0204688 0.0077512 
53 1 7.55289 34.3844 -9.02489 -0.0191059 0.0158939 -0.00358087 
65 2 6.83113 34.7631 -8.23159 -0.00490249 -0.140693 -0.0162538 
45 1 7.87734 35.6455 -9.97127 0.0145944 0.00288855 0.0142371 
49 1 7.13431 31.9464 -11.9878 0.000365515 -0.00502459 0.0133299 
359 2 -1.58208 29.6341 18.4602 0.0607543 -0.00443762 -0.0428786 
360 2 -0.236661 28.1929 18.9696 0.00334106 0.0637985 0.02692 
348 1 -0.0800877 28.8135 20.0301 0.00803787 0.0155523 0.0341298 
358 2 1.17566 27.3607 21.0125 -0.00817491 0.0329179 -0.0492002 
346 1 0.987656 28.5963 20.9058 -0.0104446 -0.0320953 0.0216359 
357 2 1.70434 27.2432 22.7112 -0.0334898 0.034607 -0.0208974 
345 1 1.32646 28.3315 23.0103 -0.0130387 -0.00988844 0.00738791 
335 1 0.631031 29.2298 22.15 0.00142219 0.00136219 -0.01326 
356 2 -3.47218 31.4841 18.468 -0.0474567 0.00559213 0.0404098 
355 2 -4.46396 32.8566 20.2274 -0.0862312 0.00429536 0.0519443 
343 1 -3.43176 33.0288 20.6038 0.00800255 0.0183602 0.0162177 
344 1 -2.49965 31.5399 18.9186 -0.00405352 -0.0230296 -0.0264337 
340 1 -3.26099 33.4194 21.7689 0.0160223 -0.0170393 -0.00156231 
347 1 -1.72868 30.4097 19.1487 0.0152026 -0.00560256 -0.00259757 
334 1 -2.21968 32.4897 20.0376 -0.0127181 0.0012568 -0.0250138 
328 1 -1.51686 32.1535 20.9794 -0.0227243 -0.014239 -0.0175894 
332 1 -2.06844 33.8089 22.2749 -0.00530999 -0.00999075 0.0015392 
352 2 -4.25546 33.9175 22.2672 0.163577 -0.0079399 0.00410837 
336 1 -0.567655 30.2305 20.0172 -0.0105903 0.00730272 0.00099717 
330 1 -0.275448 31.3081 21.0417 -0.0175058 -0.00654984 -0.00109657 
326 1 -1.29237 32.8687 22.2085 -0.0137323 0.00735008 0.00903593 
325 1 -0.601492 32.4163 23.427 4.62747e-05 -0.00586077 -0.0113437 
351 2 -3.32802 35.3037 23.6699 0.010918 0.0245708 -0.0466324 
339 1 -2.38253 34.6193 23.6248 -0.025807 -0.00195545 0.0262738 
329 1 0.397328 30.5835 22.0468 -0.012071 -0.0160973 0.0124678 
327 1 0.156913 31.0915 23.3795 0.0248972 -0.0045522 0.00101108 
353 2 -0.778203 29.5836 26.148 -0.0545083 -0.0474038 -0.0730757 
342 1 0.773012 28.7885 24.2329 -0.0434725 0.00722398 0.0205311 
354 2 0.490434 28.0362 25.2481 -0.0468167 -0.056559 -0.028377 
349 2 -1.88139 34.4587 25.9387 -0.0528048 -0.0532074 0.028231 
337 1 -1.84691 33.9479 24.9231 -0.000360758 0.00942803 0.0146161 
331 1 -0.980591 32.6997 24.7609 0.000566703 0.0140755 -0.0118721 
341 1 -0.497679 30.3736 25.5187 -0.0116597 -0.0103309 -0.0117544 
338 1 -0.679103 31.7 25.9213 -0.0113401 2.01031e-06 0.00256246 
350 2 -0.915017 31.8471 26.9489 -0.0673347 0.00688735 0.0530044 
333 1 0.523849 30.24 24.4729 0.000459597 0.0053114 0.0121562 
64 2 5.59582 32.2347 31.9313 0.00983229 0.0273737 -0.00195668 
52 1 5.88867 32.9909 32.6677 -0.0102157 -0.00801363 -0.00838822 
63 2 7.31198 31.0469 34.0537 0.0143723 0.00420272 -0.0301571 
67 2 7.54197 33.0401 31.4255 0.0665899 0.0491148 -0.0215411 
51 1 6.78626 31.7429 34.7049 0.000390168 -0.0298324 0.00157863 
40 1 7.51129 35.2946 33.6298 0.00212855 -0.00519497 -0.00360213 
55 1 6.79044 33.7314 31.9979 -0.007547 -0.0124222 0.00371513 
44 1 6.18774 32.9367 34.1118 0.0263405 0.0177668 0.00299137 
38 1 7.0904 34.1326 34.3912 -0.0197753 0.0116037 -0.00690902 
46 1 7.23177 35.1722 32.3182 0.0111977 0.0129015 -0.0192465 
37 1 7.50289 34.26 35.7428 -8.77421e-05 -0.00316624 -0.0110768 
249 2 35.3101 -7.80763 -6.0982 0.0483847 0.0270389 -0.0192924 
227 1 35.912 -6.09024 -6.80514 0.0245508 0.00554678 -0.0119794 
250 2 34.0445 -6.1436 -8.04495 -0.0189174 -0.0460999 0.0260669 
539 2 33.4031 -11.1716 -11.802 0.052971 0.0136506 0.0450548 
228 1 35.4545 -3.12867 -6.91194 0.0117518 0.0361863 -0.0151303 
251 2 34.4759 -1.42853 -6.30435 -0.0427866 -0.0757655 0.0306603 
239 1 35.5883 -1.62027 -6.43547 -0.0111966 0.00859974 0.00564354 
252 2 33.7068 -3.87559 -8.17357 0.104351 -0.0945675 0.00694796 
238 1 34.6077 -5.54227 -7.35157 -0.0135344 0.00921875 0.000974265 
240 1 34.3113 -4.109 -7.1545 -0.0138913 0.0155826 -0.0182617 
553 1 15.7922 -7.10831 -0.214897 0.0116649 0.0132238 0.000392304 
565 2 14.6201 -6.95515 -0.285204 -0.0825696 0.110809 0.0141398 
566 2 15.815 -9.82452 -1.79139 0.018363 -0.006816 0.0914784 
554 1 16.0822 -9.68412 -0.637222 -0.0169757 -0.00876261 -0.0225936 
25 2 35.5871 5.45935 -2.58341 -0.0946962 -0.0337746 -0.00776983 
555 1 16.1944 -6.11298 0.278508 -0.00987025 0.0128564 0.0125937 
547 1 16.2501 -8.52908 0.126039 0.0156813 0.013981 0.019068 
548 1 17.7522 -6.35399 0.746645 0.00497108 -0.0222044 0.0133625 
542 1 17.9955 -7.65986 1.42325 0.0125159 -0.00734169 0.0134695 
541 1 17.5172 -8.82063 0.881775 -0.000930143 -0.000594579 0.0192219 
549 1 17.4533 -11.0888 0.770243 -0.00920739 0.0142776 -0.00267928 
557 1 16.0265 -10.7408 0.285605 -0.0185196 0.0154425 0.00796244 
569 2 15.0602 -11.0866 0.640689 -0.100318 0.0137239 0.0344531 
563 1 20.6122 -7.43838 4.75704 0.0219311 -0.0287842 0.0186699 
545 1 19.4876 -10.1721 2.13555 0.00592587 0.0182647 -0.0205495 
546 1 19.6793 -8.84547 2.81535 -0.0133641 -0.00897026 -0.00119305 
543 1 18.4317 -10.0479 1.04981 0.00496024 -0.00180929 -0.0122911 
550 1 20.0871 -6.34418 2.74068 -0.00492021 0.01863 0.0110745 
560 1 20.5773 -6.31052 4.04348 0.00652557 -0.00965587 -0.0169196 
552 1 20.3702 -8.71052 4.31142 -6.31745e-05 6.37875e-05 0.0114827 
544 1 19.5108 -7.66907 2.1536 0.0089104 0.0149228 -0.019497 
562 1 19.4936 -11.0544 4.63659 -0.0109157 -0.0109115 0.0134288 
575 2 20.772 -7.39116 5.80946 0.112642 0.0434731 0.0470074 
564 1 19.8995 -9.76643 5.20818 0.0310355 -0.00993708 -0.0216249 
551 1 19.2963 -11.4093 3.20499 -0.00325549 0.00595229 -0.0197403 
574 2 19.366 -11.7571 5.43517 0.0586224 -0.00546396 -0.0110694 
567 2 15.4313 -5.29158 0.0199089 -0.0920547 -0.0360063 0.046604 
568 2 17.8591 -4.14788 1.21778 -0.0245439 0.00228251 0.0401402 
556 1 18.1345 -5.17556 1.42547 0.00401175 0.00315836 -0.00875082 
572 2 20.9885 -5.39516 4.70403 -0.0111819 -0.0146955 0.0510221 
571 2 19.3473 -4.42043 3.21214 0.0406718 0.0514734 0.0373424 
559 1 19.2417 -5.16965 2.48067 -0.00463985 0.036327 -0.00259858 
576 2 19.6456 -9.6553 6.23306 0.03461 0.0941978 -0.0227495 
526 1 34.7828 -10.9658 32.1598 0.00491446 0.0200911 0.0080214 
527 1 34.4436 -11.5866 35.687 -0.0237089 0.00233338 0.0134082 
510 1 35.985 -11.8049 33.8572 0.00775308 -0.0196248 -0.00453391 
516 1 34.7998 -11.4691 34.3311 -0.00260019 0.0197123 0.0127499 
538 2 32.9271 -11.4317 34.0509 -0.0440275 0.0148122 0.038671 
528 1 33.9725 -10.8296 33.3115 0.0214987 0.0312067 -0.00750393 
536 2 34.9906 35.9007 -10.419 -0.0292479 -0.0309606 -0.0747113 
524 1 35.3851 35.7808 -11.4017 0.0158163 -0.00976602 -0.0242444 
570 2 16.9408 35.0983 1.16863 0.0717591 0.0588074 0.0387657 
558 1 17.7913 35.7138 1.51061 -0.00429605 0.0341624 -0.000277239 
573 2 18.4991 34.9833 3.62603 -0.0045793 0.104821 -0.131377 
561 1 18.64 35.5108 2.5401 -0.00199114 -0.00108405 -0.00590646 
537 2 25.3381 16.2575 15.3937 0.100828 0.0152348 -0.0177706 
540 2 25.4702 16.3961 14.3481 -0.036244 0.104892 0.101917 
212 2 32.8604 16.5619 28.8827 0.0393397 -0.0485516 -0.0671532 
211 2 32.6036 17.8137 27.6062 0.0159662 0.0641645 0.102791 
200 1 32.9133 17.2885 29.5396 -0.0234823 0.00763233 -0.00703403 
190 1 32.4826 18.5747 29.2075 -0.0193751 -0.00685645 0.00665977 
199 1 32.3628 18.9901 27.8096 -0.00260336 -0.0256943 0.00253212 
182 1 31.7966 20.8796 29.4144 -0.02001 0.00295244 -0.0398313 
188 1 31.5213 21.1505 28.1609 -0.00923895 0.0143744 0.00899729 
193 1 31.0276 23.5197 28.6872 -0.0362347 0.011136 -0.0124269 
195 1 31.6251 22.5894 27.6526 -0.00233273 -0.0133845 -0.024953 
196 1 31.9843 20.1601 27.1515 0.00386729 0.0291087 0.00512696 
207 2 32.3725 22.7576 26.8096 0.0223791 0.0725264 -0.0126486 
208 2 31.8517 20.8252 26.2394 0.00708371 -0.0737749 -0.0329201 
205 2 30.7907 24.5991 28.6776 0.0979961 -0.00162119 -0.00279438 
534 2 34.8435 35.5544 29.3533 0.000586576 0.0259237 -0.044156 
216 2 34.5365 17.2064 33.2792 -0.0519854 0.00261859 -0.0277457 
203 1 33.2428 17.2938 31.0067 -0.00786765 -0.00356028 0.0152647 
215 2 33.7801 16.4079 31.1368 0.00642583 -0.0312942 0.0127995 
213 2 32.469 20.9527 35.1747 0.111206 -0.00131175 -0.00237367 
187 1 30.6693 23.2144 30.0714 0.00129025 -0.00380617 0.00353102 
204 1 33.851 18.2065 33.17 0.0320855 -0.00976715 -0.0136814 
214 2 34.4482 19.562 35.1331 0.0139425 0.00801037 -0.0628799 
192 1 33.2263 18.4292 31.8057 -0.000888631 0.0121305 -0.0118257 
210 2 31.4536 23.6762 34.9652 0.0253002 0.0716151 0.075912 
202 1 33.7215 19.4206 34.1176 0.00945162 -0.0221764 -0.00444383 
191 1 32.8302 20.5922 33.4443 -0.0192067 0.0058507 0.0130878 
201 1 32.3837 21.6051 34.3066 0.00462549 0.00861898 0.0119361 
198 1 31.8295 22.8728 34.127 -0.0274679 0.00596295 0.00972977 
185 1 32.632 20.9776 32.1159 -0.0197047 0.0128098 -0.014545 
186 1 32.9199 19.7804 31.2854 -0.0034835 0.0384982 -0.0155672 
183 1 31.6352 21.7857 31.7048 0.00188318 -0.00711342 0.00695444 
189 1 31.3297 23.1528 32.7476 -0.0235726 0.0171632 0.0186174 
181 1 31.1544 21.8468 30.4068 -0.0164477 0.00264093 0.0193033 
184 1 32.3154 19.5803 30.1061 -0.0347631 0.00402004 0.0138999 
206 2 29.43 24.5757 31.0328 0.030938 -0.073166 0.0262014 
197 1 31.0632 24.5511 32.3785 -0.0273062 0.0151373 0.00818074 
194 1 30.3452 24.0279 31.202 0.0118415 -0.0363954 -0.0255504 
209 2 32.0718 24.9026 31.8896 -0.0549973 0.0163495 0.0248011 
525 1 35.5349 35.1647 30.2241 0.00251704 -0.00338752 -0.0295105 
515 1 35.6291 35.8214 31.5591 -0.0213856 -0.0309737 0.00291437 
225 1 38.6094 -7.2859 -6.51626 0.0210235 0.00375004 -0.00268643 
233 1 39.2841 -7.54016 -7.67224 0.0155306 0.000192904 0.0164855 
245 2 38.8717 -8.38454 -8.33601 -0.0402255 -0.0394847 -0.0293822 
230 1 40.7138 -7.15362 -7.59087 -0.00234587 -0.0263285 -0.00984985 
242 2 41.3322 -7.38827 -8.41263 -0.0219913 -0.0353442 -0.0315938 
237 1 36.1825 -7.38696 -6.24778 0.00966524 -0.00289498 0.00595602 
219 1 38.3319 -5.95396 -6.07082 -0.0152107 0.0151665 -0.00177424 
221 1 37.2187 -5.24563 -6.60411 -0.00326767 0.021285 0.00543637 
222 1 36.78 -3.95951 -6.87165 -0.00183005 0.0235428 -0.00747143 
217 1 39.4146 -5.2101 -6.21648 0.0150252 0.00527697 0.00771746 
223 1 40.6536 -5.84807 -7.00332 -0.00850345 0.00909431 0.0272931 
229 1 41.7525 -5.02257 -7.10781 -0.0105163 -0.00985107 0.00911942 
218 1 39.3216 -3.87362 -6.50172 0.00290435 0.038309 -0.0227581 
224 1 40.6483 -3.11263 -6.82554 -0.00485884 0.00811616 -0.00394507 
231 1 41.7959 -3.71237 -7.35342 0.0113366 -9.98097e-06 -0.0390693 
232 1 40.4298 -1.61245 -6.95077 0.00316855 -0.0236645 -0.0217909 
244 2 41.4693 -1.16265 -6.82202 -0.026868 -0.0623913 -0.0300966 
235 1 39.2746 -0.800323 -6.60179 -0.00473758 -0.0216246 0.0215611 
226 1 37.9794 -1.69184 -6.7922 0.0146591 -0.0181321 0.0128629 
236 1 36.7798 -0.903903 -6.79165 0.00102469 0.0177545 0.018817 
220 1 38.0769 -3.1371 -6.92733 -0.00394626 0.00297104 -0.0147245 
241 2 42.321 -5.76087 -7.60878 -0.0192435 -0.0564555 0.0570989 
243 2 42.7082 -3.21003 -8.08559 -0.0405455 0.0176599 -0.0355305 
248 2 36.7834 0.393022 -6.84914 0.0788955 -0.00306398 -0.0895252 
234 1 37.3649 -8.02759 -5.98413 -0.00826545 0.000316443 0.0280397 
246 2 37.8147 -8.73978 -5.45835 -0.0111474 -0.0364877 -0.0624048 
504 2 46.5888 -0.158389 -2.62897 -0.0891387 0.0220264 0.0365788 
492 1 47.6945 -0.630467 -2.37897 0.00686495 0.0107837 0.0251523 
502 2 47.8886 -1.60964 -3.88725 0.0922627 -0.0212276 0.0299154 
480 1 48.61 -0.053347 -1.32444 -0.00118288 0.0253354 -0.00026101 
490 1 48.5767 -1.44245 -2.98393 -0.0132259 -0.00210625 0.00903923 
479 1 49.9057 -1.9218 -2.57718 0.00026189 5.77727e-05 0.0104592 
473 1 50.8112 -1.20286 -1.68856 -0.00521752 0.00118654 -0.00641112 
489 1 50.5185 -3.11621 -3.03928 -0.000811258 -0.00252673 0.00376378 
501 2 49.9369 -3.94435 -3.38433 -0.0708069 -0.0329832 0.0542241 
498 2 52.0888 -4.53222 -2.92986 -0.0768983 0.106021 0.00225224 
486 1 51.8543 -3.49633 -2.69339 -0.00187207 -0.00774491 -0.0241826 
477 1 52.7122 -2.74023 -1.89074 0.0236725 0.0303475 -0.0340593 
471 1 52.2224 -1.29003 -1.70505 -0.0121125 0.0227474 0.0184978 
485 1 53.8156 -3.15975 -0.852065 -0.01246 0.0169246 0.00545806 
497 2 53.8145 -4.35551 -1.09463 -0.09371 -0.0646929 0.00580357 
469 1 52.8351 -0.546228 -0.740205 0.0126032 -0.00201964 -0.00647231 
482 1 55.0189 -2.31233 -0.655247 -0.00825876 -0.0158078 -0.000376199 
494 2 56.1757 -2.38505 -0.904968 0.0549974 0.0953067 -0.0481457 
475 1 54.0892 -0.886935 -0.106565 0.035793 -0.0105758 -0.0133818 
247 2 39.2492 0.0396713 -5.78525 -0.0436442 -0.00990448 -0.0359094 
13 1 36.4833 5.44885 -2.1282 -0.0108342 0.0179425 -0.0169007 
7 1 37.2081 4.23651 -1.47408 0.0208595 0.00470835 -0.0116499 
14 1 37.0613 2.65306 -1.75084 0.00913299 0.00211704 -0.00970703 
17 1 38.0146 1.80412 -0.980171 -0.0249337 -0.0159857 -0.0133003 
2 1 39.0483 5.95448 -0.676411 -0.0258282 0.000823064 -7.39253e-05 
1 1 38.1878 4.70248 -0.50119 -0.000749224 0.00215019 0.00293988 
29 2 38.1213 0.765028 -1.20119 0.0719411 0.0547107 0.0631082 
26 2 36.5932 2.94313 -2.60543 0.100366 0.0149573 -0.0508256 
491 1 47.7273 0.595567 -0.346786 -0.0266436 0.0145381 -0.00269828 
474 1 50.0301 0.187675 -1.39354 0.0216782 -0.0183043 -0.00467295 
472 1 50.5155 1.07507 -0.484372 0.01026 0.00922869 -0.00728486 
27 2 36.4405 7.73701 -2.31721 -0.0865019 0.0375164 0.0297176 
15 1 36.9893 6.80112 -2.0142 0.0145314 0.000332916 -0.0195644 
28 2 37.6197 8.83798 -0.786274 -0.0243168 -0.0120646 0.0443795 
8 1 38.359 6.9667 -1.43848 -0.00813802 0.0199658 -0.00211592 
16 1 38.5832 8.41181 -1.24746 -0.0156981 0.0129883 -0.00306016 
31 2 40.4221 8.49296 -1.32869 0.00921853 -0.118607 -0.0115913 
19 1 39.9188 8.40254 -0.518094 0.00200051 -0.00493428 0.00740732 
481 1 54.3884 -0.459725 1.13504 0.0219803 -0.00835728 0.0244741 
493 2 55.2518 -1.12301 1.85003 -0.0893761 0.0925397 -0.00112666 
12 1 40.4904 5.9114 3.04882 0.0159441 0.00872269 -0.0011874 
9 1 38.3624 2.36999 0.359652 0.0136056 0.000333482 -0.0140271 
3 1 38.7187 3.74214 0.384111 0.000782799 0.00467047 0.00192102 
5 1 39.0066 4.55676 1.70689 0.00302012 -0.00837527 -0.000837419 
11 1 38.3273 3.98489 2.94383 0.0423115 -0.0174258 -0.00613768 
22 1 38.6015 4.6747 4.21903 0.00971381 -0.0118105 0.0100269 
21 1 37.7003 2.57375 2.79396 0.00433112 0.0132298 0.0253585 
18 1 38.4438 1.86921 1.70117 0.00624066 -0.010801 -0.00297446 
30 2 38.4499 0.780299 1.92616 -0.0693182 0.019485 -0.0910704 
6 1 39.8895 5.57281 1.75743 0.00367403 -0.0207832 -0.0282831 
34 2 38.2864 4.45996 5.07594 -0.118428 -0.0386774 0.110505 
36 2 39.7326 5.79727 5.49525 0.0711461 -0.0505569 -0.109052 
24 1 39.6469 5.73122 4.24749 0.0241714 -0.00080743 -0.00798052 
33 2 36.7228 2.20513 3.45169 0.0556624 -0.125013 0.0159479 
503 2 46.8197 0.0647278 0.12711 0.00843956 -0.112849 -0.0618871 
500 2 47.6585 2.2811 0.26482 0.00447381 -0.0125429 0.0533867 
488 1 48.5973 1.38294 0.5303 -0.000949808 0.000850849 -0.0268076 
499 2 50.0738 3.13473 1.9563 0.0506762 -0.0920675 0.0595264 
478 1 50.0189 2.06511 0.416595 0.0242748 -0.0168527 -0.0117256 
487 1 50.7995 2.26847 1.72473 0.0153356 -0.000369525 0.00353919 
484 1 51.6749 1.46172 2.00028 -0.0066792 -0.00524018 -0.014116 
496 2 51.9951 2.0436 3.10287 -0.0365429 -0.0297598 0.0290186 
476 1 52.4094 1.26139 0.808107 -0.011271 -0.0120365 -0.00101234 
470 1 51.7059 0.237566 0.105389 0.0159229 -0.0351716 0.0137588 
483 1 53.5445 0.572275 1.59685 0.00675443 0.00460089 -0.021301 
495 2 54.0438 1.09158 2.35845 0.0167024 -0.00823817 -0.0786253 
4 1 39.9063 6.30778 0.502769 -0.00217916 -0.00261301 0.00168913 
20 1 40.8184 8.31687 1.93007 0.0396882 0.00408487 0.00124129 
32 2 40.7413 9.26652 2.51674 0.00241779 -0.0192057 0.0395398 
35 2 40.8574 8.10969 3.75951 0.0565413 0.0634462 0.0340602 
23 1 40.7692 7.38457 2.85671 0.0137635 -0.00199275 -0.0385361 
10 1 40.458 7.60571 0.674989 -0.0377249 0.0114946 0.016847 
105 2 46.4885 6.92941 14.2862 0.0348406 -0.0403214 -0.0769613 
386 2 41.578 -1.43356 20.8745 -0.00362756 0.0182549 0.0555983 
385 2 40.9811 -0.840702 23.2246 0.0231181 -0.00653453 0.0794171 
374 1 42.9192 -1.3786 20.9521 -0.00718351 -0.0262682 0.00444724 
389 2 43.5222 -2.31713 18.8372 0.0575195 -0.0943024 -0.0107412 
390 2 45.7568 -0.49649 18.2461 -0.0349417 0.0877501 0.0201045 
378 1 45.8374 -1.2272 19.223 -0.00573226 -0.018544 -0.0102732 
377 1 43.7875 -1.89464 19.7728 0.00201037 -0.00335075 -0.0132747 
381 1 47.08 -1.70984 19.6695 0.00172139 0.0103457 -0.021098 
369 1 45.0442 -1.63103 20.35 0.0366321 0.0253398 -0.00580717 
365 1 46.689 -1.7543 22.0791 0.0189376 -0.00534686 -0.00403136 
371 1 47.6435 -2.06916 21.0688 0.00412085 0.003911 -0.00533627 
363 1 45.4222 -1.76563 21.74 0.0437865 0.0118558 -0.0131349 
366 1 47.1849 -0.734289 22.9032 0.0358055 0.00924812 -0.0234893 
361 1 44.5592 -1.21538 22.6624 -0.0151158 0.00674953 -0.0129219 
367 1 43.1445 -0.967317 22.3465 0.00475011 0.0253475 -0.0124879 
373 1 42.1188 -0.767918 23.2817 1.19374e-05 -0.00412219 -0.0217722 
362 1 44.985 -0.421366 23.6391 -0.0147948 0.00175105 0.00865073 
364 1 46.1395 -0.0226771 23.8451 -0.0107312 -0.0556942 -0.0139118 
393 2 48.1359 -1.61321 19.3007 -0.0501943 -0.0799581 0.018861 
394 2 49.8852 -2.26031 20.5398 -0.0598159 -0.0900761 0.00451179 
382 1 49.1342 -1.72763 21.2468 0.000715405 -0.0191204 -0.0184551 
384 1 49.4065 -0.506631 21.8009 -0.00200115 0.0238466 -0.0204775 
396 2 50.4532 -0.192978 21.4193 -0.0212655 -0.0148832 -0.0183345 
380 1 47.69 1.84199 23.9662 0.00961853 0.0243539 -0.0283171 
372 1 48.3451 0.0942077 22.543 -0.00911028 -0.00767898 -0.0120151 
383 1 48.7029 1.45634 23.1105 0.00989824 -0.00971853 -0.026558 
395 2 49.7304 1.59155 22.9016 0.0353795 0.0391155 -0.00534904 
387 2 42.2295 1.04055 24.7953 0.0197847 0.109074 -0.0522012 
375 1 42.6819 0.095879 24.1456 0.0186608 -0.0144194 -0.0259396 
368 1 43.9479 0.308133 24.3656 0.00196546 -0.000675455 0.00238263 
376 1 44.1224 1.60124 25.1655 0.0027751 -0.0257757 -0.0122978 
370 1 46.4229 1.31032 24.056 -0.0030275 -0.00121457 0.00130054 
392 2 47.993 2.82893 24.469 -0.0251666 0.0112759 -0.049659 
388 2 43.452 2.40991 25.5596 0.0500007 -0.0657128 0.0221145 
379 1 45.5014 1.96622 25.04 -0.00621215 0.0168915 -0.0057294 
391 2 45.8719 2.75055 25.8038 -0.0826051 0.046898 -0.0348415 
100 2 55.2803 5.59499 29.6236 -0.0910626 0.0825034 -0.0246849 
99 2 52.6679 6.4247 29.473 -0.0341719 -0.0526139 -0.0165058 
103 2 57.4468 6.10778 29.5407 -0.0157823 -0.0184612 0.0537041 
88 1 55.4191 6.72161 29.974 -0.0241468 0.0220657 -0.0118565 
80 1 54.389 7.71444 29.8648 0.00756943 -0.00538649 0.00253179 
76 1 56.1838 9.47717 29.9643 0.0172766 0.00253335 -0.0193955 
97 2 51.7029 6.83482 31.8993 0.0144171 -0.0143826 -0.0653271 
85 1 52.4011 7.52235 31.3764 -0.0345272 -0.00171211 0.00537515 
87 1 52.999 7.16647 30.1479 -0.00225737 0.0348578 0.0121435 
73 1 53.586 9.73502 30.7124 0.0192019 -0.0213712 0.0258724 
98 2 51.1427 8.97841 33.095 0.0197737 0.00279023 0.00119734 
86 1 51.6904 9.62397 32.3906 0.0164489 0.00306609 0.00802989 
79 1 52.7292 8.99506 31.7451 0.00125825 -0.00299106 -0.00367818 
101 2 51.5727 11.7974 33.5226 0.0576419 0.0312797 0.0116764 
89 1 51.7371 10.9845 32.7205 -0.00388214 0.0184016 0.0238162 
75 1 53.6255 11.1328 31.1982 0.048359 -0.012341 -0.0177758 
81 1 52.7069 11.9405 32.1757 -0.0058428 -0.00614365 0.0117593 
92 1 58.4135 9.07569 30.6087 -0.00569233 -0.00650449 0.00914697 
104 2 59.3073 8.36982 30.3765 0.013628 0.00269179 0.16642 
95 1 58.6677 10.6799 30.6787 0.0325845 0.00652789 0.0055321 
91 1 56.8483 6.94355 30.1409 -0.0118237 0.00632238 -0.00724659 
82 1 57.2019 8.55772 30.1082 -0.0120978 0.00470443 -0.00804666 
78 1 56.2066 10.7301 30.7539 0.0360383 -0.0145778 -0.00784665 
107 2 59.6036 11.298 31.0262 -0.0203539 0.00908882 -0.045759 
74 1 54.6833 8.80031 30.3444 -0.0294336 0.00241437 0.0100438 
84 1 57.3912 11.3219 30.2796 -0.01197 -0.00141119 0.00573002 
77 1 54.8951 11.5146 30.793 0.0062837 -0.00953388 -0.00115807 
520 1 39.2996 35.5103 -11.0077 -0.00304235 -0.0161613 -0.0043929 
523 1 38.0321 35.7162 -10.5851 0.00831656 0.0175457 -0.00860002 
535 2 38.1703 35.7685 -9.4753 -0.00133189 0.0776678 0.04441 
514 1 36.9083 35.7674 -11.6456 0.00762068 0.0105768 0.00528159 
532 2 40.0439 35.334 -10.2733 0.0472632 -0.0791118 0.0562292 
405 1 40.1725 21.7701 11.2983 0.010738 0.00891363 0.00201159 
414 1 40.2256 20.4835 10.6997 -0.0143932 0.0136664 0.00699907 
417 1 40.2126 19.3946 11.6251 -0.000582908 -0.000944927 0.00633983 
425 2 40.0886 23.4638 9.7696 -0.0826784 -0.0288471 -0.0185592 
429 2 40.1448 18.1084 11.7656 -0.00825093 -0.00288546 0.0388185 
413 1 40.3389 23.05 10.7445 -0.0118548 -0.0186525 0.0200181 
426 2 41.2817 21.0448 9.87127 -0.0860734 0.0359257 -0.120449 
422 2 39.6932 25.2486 10.86 -0.0543829 -0.0382003 -0.0451933 
410 1 40.2647 24.2984 11.4666 0.0228291 -0.0204882 -0.00827492 
432 2 38.114 17.5924 15.16 0.0160804 -0.0718076 0.0537945 
430 2 38.5913 17.4984 13.0848 0.00643196 -0.0303435 0.0071505 
431 2 38.6337 19.134 17.6533 -0.0422715 -0.0118151 0.0401032 
400 1 38.6677 22.2178 15.3495 -0.00651767 -0.00243188 0.0030304 
398 1 38.7072 23.4344 14.4299 0.00280547 0.0238296 0.000584927 
415 1 39.0249 23.6626 17.1562 0.0200233 -0.00236949 0.0103027 
416 1 39.2222 21.4674 17.4901 -0.0010535 0.00950696 0.00349852 
406 1 39.4142 22.4678 16.5677 -0.0171109 0.0102168 0.00171114 
419 1 38.9155 20.2181 17.1127 -0.0146612 -0.000478144 0.0161196 
408 1 38.9497 19.729 15.7016 -0.00533914 0.00301753 0.0160595 
402 1 38.8595 21.0616 14.8971 -0.0268498 0.0190737 -0.00709344 
397 1 39.1368 23.0979 13.0837 0.0144166 0.00198719 0.0120041 
420 1 38.3511 18.6753 14.8885 0.0144493 0.00201457 -0.000605355 
401 1 39.0282 20.8647 13.5109 -0.0307589 -0.00245986 0.030309 
399 1 39.5807 21.8314 12.7269 -0.0272516 -0.00686325 0.018767 
418 1 38.8451 18.4153 13.6329 -0.0166734 -0.00725015 0.000137236 
407 1 39.3007 19.4288 12.723 -0.0132626 0.0029475 0.0290667 
179 2 36.7317 23.3362 14.2578 -0.0142108 0.0196072 0.00796528 
427 2 39.5389 24.1962 17.9265 0.00678897 -0.0565004 0.00888131 
404 1 38.4781 24.5818 15.0342 0.00879903 -0.0176228 -0.00227829 
424 2 37.7251 25.4712 16.8807 0.0552945 -0.0355922 0.0601018 
412 1 38.105 24.5609 16.4618 0.0123055 -0.00818725 -0.0173099 
423 2 38.5408 26.6007 15.1242 -0.00137178 -0.003568 -0.00751768 
411 1 38.6584 25.7718 14.4672 -0.00627136 -0.0222139 0.00270493 
409 1 39.547 25.2964 13.3499 0.0359172 0.00293877 -0.0110351 