ITEM: TIMESTEP
890000
ITEM: NUMBER OF ATOMS
576
ITEM: BOX BOUNDS pp pp pp
-1.2000000000000000e+01 8.4000000000000000e+01
-1.2000000000000000e+01 3.6000000000000000e+01
-1.2000000000000000e+01 3.6000000000000000e+01
ITEM: ATOMS id type x y z vx vy vz 
107 2 5.31397 -6.29773 -11.4129 -0.0617933 0.00613423 -0.115925 
96 1 5.44259 -3.49134 -10.6528 0.000373679 -0.0224711 -0.00706302 
449 1 11.8871 2.33875 -1.05618 -0.0189796 0.0186996 0.000361611 
84 1 5.99031 -4.23368 -11.863 0.00714898 -0.00146342 0.00418572 
106 2 4.60134 -4.38776 -10.0122 0.0544257 0.103302 0.00315822 
94 1 6.16745 -2.31553 -10.2637 -0.0111536 -0.00688312 -0.00996006 
102 2 5.98523 -1.54849 -9.50871 0.0242328 0.0585778 0.0331016 
83 1 7.3469 -2.20759 -11.0057 0.0142567 0.00449813 -0.0152845 
93 1 8.33168 -1.18201 -10.7515 -0.0112401 0.00887674 0.00112398 
441 1 11.9089 1.38967 -2.23434 0.00785341 0.0170913 -0.00104236 
465 2 9.43884 2.16204 -5.79392 0.128541 -0.0375323 0.00708945 
443 1 10.2736 1.77686 -5.47275 0.00267213 -0.018602 0.0161226 
90 1 8.29931 0.180827 -11.1533 -0.0132981 -0.017069 -0.0314527 
462 2 11.7457 -0.457338 -3.28046 -0.0523612 -0.0701551 -0.0519809 
450 1 10.9615 -0.124798 -3.86345 0.0368322 0.00952795 -0.00110753 
453 1 10.3796 0.752748 -4.65904 0.0412596 0.014386 0.00134436 
454 1 11.511 2.0743 -5.73685 0.0081792 -0.0136283 0.0148447 
461 2 11.1937 1.93107 -0.0600782 -0.059726 0.048671 -0.0500229 
468 2 11.8871 1.8311 -7.9395 0.0609738 -0.00699073 -0.00417155 
267 1 -9.27601 -11.2456 19.715 0.00256378 -0.010244 -0.00164538 
279 2 -9.4309 -10.9731 20.7161 -0.126086 0.0132512 0.0105076 
260 1 -10.4307 -11.3708 18.801 -0.00426083 0.00780091 0.00721444 
268 1 -11.1532 -10.0724 18.7027 -0.00238004 0.0168058 0.00219089 
101 2 8.74619 0.927842 32.137 0.054778 -0.00142851 -0.0522087 
226 1 3.46739 -9.00248 22.7544 -0.00885992 0.0406737 0.00606375 
239 1 2.44588 -9.91933 22.0863 -0.0243072 0.0271116 0.00183583 
236 1 1.68963 -10.5607 22.8797 -0.00194317 0.000976606 -0.0116345 
235 1 4.7987 -8.78509 22.0758 0.00385179 0.00160558 -0.0132674 
228 1 1.63872 -10.579 24.236 0.0244687 -0.0117917 0.00112607 
251 2 2.15876 -10.106 21.0201 -0.125752 -0.0775865 -0.0283648 
240 1 0.384726 -11.6991 24.4928 0.00282252 0.00113708 -0.0174548 
247 2 5.1417 -9.09891 20.9868 -0.0469874 -0.0236115 0.00351728 
232 1 5.47215 -7.70659 22.6949 -0.00276802 0.00514959 0.00326932 
244 2 6.33801 -7.2435 22.0939 -0.0825092 -0.00316306 0.116015 
86 1 8.89853 0.294291 33.0291 0.00493207 0.0224917 0.0118847 
222 1 2.50772 -9.90597 24.9252 -0.00911512 -0.0122767 -0.0142198 
220 1 3.62852 -9.17363 24.135 -0.00182037 0.0114592 0.0205013 
246 2 2.06436 -9.63969 30.1284 0.0346455 0.038548 -0.0410878 
237 1 1.3594 -10.9273 28.3528 -0.00423398 0.0168779 0.0414247 
227 1 1.55906 -11.0215 26.9655 0.0152937 0.00235663 0.0192947 
234 1 2.06715 -9.87436 28.9738 -0.000388539 0.02296 -0.00206113 
245 2 3.87458 -8.63923 30.3609 -0.0257381 -0.0754287 0.0394479 
241 2 5.60364 -5.22266 26.2668 0.0480145 0.0142633 0.115929 
242 2 5.38483 -6.39903 28.7133 0.111271 0.0260145 0.0296196 
230 1 4.79194 -7.35313 28.5963 0.00529093 0.0179799 0.0151161 
233 1 3.93029 -8.31749 29.3914 0.0206626 0.00890092 -0.013131 
229 1 5.73343 -6.38507 26.4474 0.00779948 0.00456084 0.0123808 
223 1 4.7598 -7.31663 27.1183 0.0171772 -0.0136344 -0.00140576 
225 1 3.0768 -9.05538 28.4148 0.00358883 0.00288964 -0.00707675 
219 1 3.41505 -9.26665 26.9266 -0.00187441 0.00405558 0.00640558 
217 1 4.43742 -8.47256 26.3459 0.0111521 0.02442 -0.00040714 
218 1 4.65763 -8.5616 24.8557 -0.0285272 -0.0183154 0.00468747 
221 1 2.565 -10.2084 26.3314 -0.0104533 0.00819388 -0.0196383 
224 1 5.43138 -7.57606 24.136 -0.0259051 0.00895602 -0.0151485 
277 2 -7.44024 -11.922 19.961 0.0259236 0.00692974 0.0185824 
231 1 5.95857 -6.56328 25.0554 -0.0026291 0.00719456 -0.0209748 
243 2 6.38502 -5.92767 24.4783 -0.0606879 0.0192622 0.0348289 
104 2 6.48922 -7.30262 34.734 0.021595 -0.0634168 0.0262471 
103 2 6.64906 -7.05849 30.8797 0.0267269 0.0565686 -0.0834081 
88 1 6.90425 -6.35853 31.5702 0.0109685 -0.0131139 0.0217278 
92 1 6.55375 -6.3696 35.0131 -0.0295061 6.51947e-06 -0.00724473 
355 2 8.14538 -3.94923 32.4174 -0.015875 -0.0148994 -0.0559523 
91 1 6.89228 -6.07355 32.6901 -0.0155173 0.00390488 -0.00548216 
78 1 6.78106 -3.49495 35.1624 0.0112751 -0.000593476 -0.00507766 
76 1 7.2901 -4.21662 33.9624 0.0137385 -0.00745916 -0.0199105 
74 1 7.89715 -3.39515 33.0586 -0.00136696 0.0183003 0.00651857 
77 1 7.61131 -2.49209 35.6188 -0.0201018 -0.0118261 -0.0097913 
73 1 8.37316 -1.83126 33.6029 -0.00417358 0.000863549 0.0172671 
82 1 6.93103 -5.5794 33.8612 -0.0126064 -0.0121457 0.00512794 
75 1 8.37763 -1.63088 34.9474 -0.0050417 -0.0063466 0.00817469 
97 2 9.01439 -1.76381 31.7371 -0.0327544 -0.101451 -0.00358133 
79 1 8.90614 -1.16349 32.567 0.009442 0.00931413 0.0366751 
81 1 8.43923 -0.142408 35.2578 -0.0121854 -0.017409 0.000370807 
89 1 9.0977 0.672698 34.249 0.009811 -0.00839126 0.0178328 
249 2 1.15992 -11.7378 29.1652 0.11058 0.00948303 0.0405981 
432 2 -10.6651 2.72998 14.9414 0.0898401 -0.0220378 0.0599491 
238 1 0.771044 -11.6135 25.8641 -0.00431778 -0.000848415 0.0227555 
265 1 -8.19723 -12 19.0714 0.0196303 -0.0128279 -0.0418366 
252 2 -0.785187 -11.3773 23.9823 0.00844902 -0.00161892 0.0796199 
95 1 6.06623 -5.59734 35.9832 -0.000937538 -0.00395055 0.0115947 
33 2 -4.67607 12.4002 -7.46204 -0.0521527 -0.0817178 0.0473308 
287 2 -4.71939 12.7488 -7.75042 0.092034 0.00538361 -0.00822857 
566 2 6.04592 26.3408 -10.5775 -0.0428483 -0.0441352 0.0596429 
549 1 7.05587 26.9852 -10.6679 -0.00729673 0.00696916 -0.024317 
558 1 7.59472 27.5871 -9.71068 0.0147331 -0.0103842 0.0170572 
561 1 8.56153 28.4195 -9.05424 0.00694177 -0.0158317 -0.00670568 
551 1 9.32469 29.3094 -9.38681 -0.0103091 -0.00572698 0.0181691 
545 1 9.72754 30.3239 -10.6205 -0.0110475 0.0213824 -0.00424182 
573 2 9.67311 29.5883 -8.35794 -0.0144012 -0.0100837 -0.0963925 
546 1 10.8411 31.0996 -11.1707 -0.00734395 0.000772658 0.0104561 
388 2 -11.3905 25.2074 7.81547 -0.00597895 -0.0280517 0.039188 
543 1 8.65607 29.8825 -11.5218 0.00723095 0.0183585 -0.00532553 
569 2 7.7657 29.1793 -11.2427 0.0335829 -0.0322414 0.114551 
176 2 -4.52921 17.8512 6.83867 -0.0386661 0.0418969 -0.01778 
248 2 -4.60832 18.0426 7.64531 0.0671247 -0.0908706 0.0270941 
376 1 -11.4985 26.4116 10.2674 -0.00978077 -0.0108527 0.00874239 
379 1 -11.6933 27.5439 11.2142 -0.00143213 -0.00108693 0.0217869 
391 2 -11.1163 27.8087 12.2524 0.013457 0.0355067 0.0988895 
554 1 8.01691 27.1904 -11.8565 0.0186451 -0.036968 0.0198841 
575 2 -10.8899 30.0479 15.0615 -0.069697 -0.0325742 -0.0367785 
542 1 10.192 30.8246 34.8021 -0.00353672 0.0166303 0.0236397 
256 1 -11.526 35.2796 17.2285 -0.0256943 0.00366657 0.00400289 
357 2 0.465557 35.0455 25.7875 0.0265423 0.0167665 -0.00913784 
568 2 10.9308 32.5979 31.7646 -0.0548667 -0.0625555 0.0191268 
550 1 11.8865 32.7984 34.955 0.0132577 0.00929066 0.00318905 
263 1 -11.4717 31.6621 16.4105 0.00484134 -0.0184508 -0.0048342 
257 1 -10.9968 32.8931 17.032 -0.0231317 0.00907147 -0.0314294 
273 1 -10.4858 30.8093 15.9157 -0.00898557 -0.00284443 0.0092935 
255 1 -9.75361 33.1563 17.6015 -0.00188899 -0.00447225 -0.0035155 
261 1 -8.91531 32.0857 17.1815 -0.0136877 -0.000634904 0.0142754 
270 1 -9.05043 31.3151 15.9041 -0.0117115 0.0271577 0.0130269 
285 2 -8.1288 30.616 15.6674 0.000976378 -0.0517544 0.0545925 
559 1 11.5656 33.2126 33.5847 0.00532122 0.0230045 -0.0106791 
266 1 -7.19044 33.6236 18.426 -0.00622227 -0.00767677 -0.0396595 
253 1 -9.43805 34.2766 18.0475 0.0223321 -0.0155731 -0.0337127 
254 1 -10.4892 35.2972 18.0505 -0.00865782 0.0170007 -0.015706 
269 1 -7.73848 32.3651 18.2201 0.00426676 0.00048075 -0.0254239 
259 1 -8.14778 34.7452 18.284 -0.0119116 -0.0145687 -0.00312829 
281 2 -6.4821 34.2735 19.3778 -0.0202908 -0.00962549 0.0165718 
539 2 -11.3811 35.5854 27.9001 -0.0300238 -0.10992 0.0195665 
541 1 8.95551 30.3042 35.1402 -0.0130208 0.0131411 -0.0109716 
555 1 10.7008 30.8426 33.3401 -0.00300397 0.00317284 -0.000106402 
258 1 -11.8776 33.9641 16.7043 0.0116958 -0.0183941 0.0193631 
547 1 9.10075 29.0207 34.3288 0.00771326 -0.0344141 0.000754951 
567 2 11.0861 29.9087 31.1824 -0.0662201 0.0176294 -0.0782326 
557 1 8.50268 28.0595 35.198 -0.0188712 -0.00906902 -0.00178655 
553 1 9.70305 29.0176 33.0177 -0.00155418 0.00105507 -0.00808034 
548 1 10.7206 29.9104 32.2843 -0.00409833 0.00408719 -0.0108202 
565 2 9.1059 28.6838 32.2401 -0.0176093 -0.0613635 0.00891472 
556 1 11.2858 32.2358 32.5944 0.00308222 0.0214701 -0.00965279 
544 1 10.6831 32.0273 35.4197 0.00232036 0.0102764 -0.00933242 
452 1 15.3755 1.43483 -6.72078 -0.00150641 -0.0127939 0.0115674 
455 1 14.4017 1.4018 -7.41235 -0.00303046 -0.00942116 -0.0045139 
467 2 14.4174 1.33107 -8.6844 -0.0589494 -0.0230531 0.028208 
444 1 13.2411 1.95015 -6.85602 -0.00343225 0.000178116 0.0161736 
463 2 18.0688 1.36291 -6.09815 0.00245488 -0.0248158 -0.0118567 
445 1 15.3582 4.12071 -1.56443 -0.0196934 -0.0265514 -0.00760271 
457 2 17.2657 4.15701 -1.72832 -0.0535162 -0.0263106 0.0172072 
448 1 17.3825 2.39813 -4.24874 -0.00642512 0.012862 -0.00184483 
451 1 17.3096 1.34748 -5.21746 0.0296054 0.0316616 -0.00129819 
460 2 18.2562 3.25022 -4.21486 0.00371178 0.0326498 -0.00381979 
440 1 16.3977 2.43755 -3.21889 0.00291116 -0.0135035 -0.0194727 
442 1 15.8349 1.09684 -5.59007 0.0429897 0.0162927 -0.00704656 
447 1 16.4214 3.53388 -2.16434 0.0223837 -0.0162748 7.98175e-05 
434 1 15.0632 1.80593 -3.31613 -0.0120057 -0.0232771 -0.017482 
439 1 13.8716 3.5128 -1.96327 -0.0099135 0.0113348 -0.0103194 
436 1 14.681 1.27682 -4.76497 -0.0115617 -0.0136705 -0.0054819 
433 1 13.9049 2.57023 -3.02471 0.0193568 -0.0230958 -0.0137539 
438 1 13.6657 2.10724 -5.39294 0.00799885 0.0187182 -0.0161615 
435 1 12.4552 2.23768 -3.27862 -0.00838466 0.00339715 -0.0140535 
459 2 14.7366 4.69511 -0.85225 0.0264416 0.0738103 -0.0210138 
446 1 13.1288 2.99735 -0.766823 -0.0133887 0.00272605 -0.0143692 
337 1 24.046 11.7734 8.98133 -0.00771098 -0.0135958 0.0115781 
352 2 21.4162 7.19466 -9.36623 0.0972179 0.00206294 -0.174233 
574 2 22.0111 6.52815 -9.18431 -0.0847844 -0.0496485 0.00379308 
458 2 13.4082 3.66629 0.0346927 -0.037049 0.0384993 0.0490289 
350 2 23.0037 9.685 9.5762 -0.00650497 0.0889407 0.0557197 
338 1 22.1765 10.2161 9.10828 0.0208492 -0.0234909 -0.0199552 
341 1 20.9251 9.74904 8.92545 0.0166342 -0.0191068 -0.000789282 
354 2 18.2084 9.8508 8.65021 0.10319 0.0134893 -0.0224697 
353 2 20.5207 8.89195 9.12918 -0.0530979 0.0124693 -0.0267804 
331 1 22.7683 11.4718 8.66659 0.0188153 -0.00717818 0.0156838 
333 1 20.0128 11.0141 8.65437 0.00170998 0.0073537 -0.0173224 
349 2 24.4215 10.9755 9.67583 0.0150213 -0.0554904 -0.00066609 
345 1 17.6621 11.6051 7.74154 0.0160574 -0.0115401 -0.0101886 
437 1 12.4229 2.22096 -4.71502 0.0107198 -0.020994 -0.0110362 
342 1 18.6551 10.7587 8.33802 0.0118774 -0.0138987 -0.0273932 
456 1 11.9982 2.26995 -6.9761 -0.0162498 -0.0198412 0.0161859 
216 2 16.7764 10.9754 7.544 0.106923 0.0401968 -0.101009 
358 2 17.7024 11.7537 5.41575 0.00720197 -0.00482898 -0.00569044 
504 2 28.967 21.2408 -8.21968 0.0193436 0.0173979 -0.0780913 
563 1 14.8205 33.3866 -11.4878 0.000909525 0.0254511 -0.00224863 
177 2 15.8069 33.324 -11.6741 -0.0308337 -0.0170011 -0.0540251 
562 1 13.1039 29.7861 -10.242 -0.00591875 -0.0188002 -0.0167387 
421 2 13.952 29.2377 -9.52025 0.0966534 0.00229026 -0.068794 
576 2 13.4199 30.7101 -9.4253 -0.0790833 0.00122364 0.0355351 
71 2 29.5427 20.4915 -8.16663 -0.0734844 -0.0493874 0.0315159 
360 2 18.0731 13.8323 3.98 -0.00112301 -0.0864467 -0.0202384 
348 1 18.7457 13.7896 4.87505 -0.0183178 -0.00323164 -0.00682133 
347 1 19.944 16.1882 5.14152 -0.00834626 -0.0147682 0.0224239 
359 2 19.2746 17.0853 4.84673 -0.0416514 0.0110333 0.0292181 
356 2 20.2739 17.6383 6.3583 -0.0358423 -0.042147 -0.00685345 
344 1 20.8346 16.6836 6.11737 -3.24379e-06 -0.00838094 0.0178614 
336 1 19.4131 14.8743 5.62954 -0.0106732 -0.0107818 0.00147436 
334 1 21.9505 16.104 7.0892 -0.00778238 0.0107806 -0.00281921 
346 1 17.9392 12.861 5.6271 0.0265158 -0.000879924 -0.0301536 
340 1 24.0678 15.6762 8.25177 -0.00963466 -0.0277426 0.0231057 
351 2 25.5667 13.2846 9.32532 0.0364119 0.0786829 -0.0211909 
564 1 12.046 30.3726 -10.6542 0.00472175 -0.0331695 0.00832388 
335 1 18.1486 12.7055 7.02712 -0.00831764 0.0139494 -0.00574166 
326 1 22.4454 13.8923 8.01161 -0.0179212 0.00472058 0.0214548 
343 1 23.1525 16.6746 7.54992 0.0174374 0.00717152 0.0110766 
328 1 21.6191 14.7112 7.3919 0.0215449 -0.013212 0.0142603 
339 1 24.7728 13.144 8.77628 0.0274946 0.014483 0.00112461 
330 1 20.1107 14.4913 6.87835 -0.0285118 -0.00903979 0.00988234 
329 1 19.7198 13.2202 7.28828 -0.00235488 -0.012868 -0.0138499 
332 1 23.9374 14.2187 8.18392 -0.0240941 -0.00150892 -0.00337861 
327 1 20.5482 12.3205 8.0294 -0.00356696 0.0114296 0.0100771 
325 1 21.8282 12.6277 8.33776 -0.0155522 0.00353797 0.00938742 
552 1 13.8547 34.3576 -11.9862 -0.00364807 -0.00331736 -0.000875321 
394 2 26.8555 22.9748 13.6239 -0.076473 0.0325695 -0.0861515 
144 2 26.7929 22.5567 14.1253 0.0373456 0.138645 0.0356192 
207 2 22.2369 15.5344 26.9837 0.000383046 -0.0051006 -0.0535485 
205 2 21.6128 16.6167 28.8767 -0.0430502 0.0297465 0.0102747 
188 1 23.6994 17.2631 26.7991 -0.00155018 -0.0147861 0.00395238 
195 1 22.423 16.6204 26.8532 -0.0114099 -0.0184438 -0.00136536 
193 1 21.3591 17.0363 27.7806 0.0295823 -0.0224292 -0.00348393 
208 2 24.2098 15.541 27.8243 -0.00614578 -0.00538621 0.0457967 
196 1 24.7416 16.2526 27.367 0.00304944 0.000824918 -0.00116498 
199 1 26.0163 16.8547 27.63 -0.00234004 0.000168732 0.0100501 
211 2 26.6008 16.274 28.4153 0.0817877 0.0341382 -0.0528735 
194 1 20.1011 18.8331 27.7223 0.0100201 0.00306231 0.0267846 
206 2 19.1581 18.3285 27.4396 0.0604354 -0.0634844 0.0823732 
209 2 19.2218 20.1305 29.4028 -0.0787505 0.030279 -0.0874516 
187 1 21.4965 18.5685 27.9978 0.00979626 -0.0019355 -0.00711693 
197 1 20.1468 20.2362 28.6382 0.0251814 -0.00736725 0.0279307 
181 1 22.4694 19.3583 27.1064 0.00449086 -0.00380519 0.0180792 
182 1 23.7077 18.7586 27.1271 -0.00439021 0.00369303 -0.00171406 
183 1 22.805 20.7182 27.5738 0.0192569 0.00745815 0.00593587 
191 1 23.7924 22.3342 29.1923 0.0112203 -0.00138706 0.0142146 
185 1 23.9671 21.4842 27.9613 -0.0103516 0.0206625 -0.00315428 
189 1 21.5214 21.0413 28.393 -0.00755481 0.0097974 0.00653447 
198 1 21.491 22.2995 28.9453 -0.00891946 0.00236744 0.00287879 
201 1 22.577 22.7878 29.4903 -0.00635469 -0.00186503 -0.0103013 
133 2 20.7698 22.9634 29.5493 -0.0774574 -0.0608964 -0.0913485 
184 1 24.8651 19.3173 27.4767 -0.0202324 0.00316092 -0.0155035 
190 1 25.9721 18.4061 27.5594 -0.00499033 -0.00674933 -0.00553823 
215 2 28.0528 18.8328 27.6846 -0.0373567 0.0507129 0.0523048 
192 1 27.9164 21.6362 28.0871 0.00462936 0.00613745 -0.0200659 
186 1 25.3184 20.6632 28.0524 0.0224446 -0.0245051 0.00849423 
200 1 27.0872 19.3129 27.6416 -0.00298436 0.0115326 0.01667 
203 1 26.7038 20.8215 27.845 0.0104182 -0.00728327 0.0169239 
213 2 24.5801 22.7221 29.4938 -0.0125006 -0.0897066 -0.00770551 
212 2 27.5476 21.6526 29.2933 0.00797496 -0.0331413 0.0969061 
204 1 28.4207 23.3072 26.0232 0.00771959 0.015223 -0.00937518 
202 1 27.9901 22.5564 27.0303 -0.00171744 0.00649209 -0.0202381 
214 2 22.6012 23.7531 29.6965 -0.0545928 0.0863338 0.0184042 
572 2 14.0572 35.6103 35.9718 -0.0118458 -0.00629375 0.0689863 
560 1 13.0227 33.6038 35.5069 0.005551 -0.00516884 0.000937657 
571 2 12.2415 33.9543 33.1932 0.0281144 -0.0107753 0.0022145 
399 1 49.9854 4.33538 -8.74402 -0.00217517 0.0122153 -0.0114061 
401 1 50.0264 5.40971 -9.35343 -0.00304663 -0.00940184 0.0105721 
407 1 49.8906 3.16669 -8.07764 0.00422924 -0.0177701 -0.0285134 
250 2 48.8901 2.92666 -7.81251 0.0162342 -0.0805608 -0.0479312 
417 1 50.8566 3.03086 -6.95619 0.0178431 0.00722703 -0.0140393 
429 2 50.3749 2.40408 -6.16825 -0.0161635 0.075775 0.0533557 
414 1 52.1743 2.28279 -6.90516 0.00807969 -0.0241124 0.0119832 
402 1 50.1718 6.70927 -9.82237 0.00526185 0.0146356 0.0138937 
426 2 49.938 8.93142 -9.71859 -0.0409141 0.0454532 0.00396882 
400 1 50.3053 7.92503 -10.1858 0.015181 -0.000807879 -0.00526689 
425 2 52.5882 8.23199 -7.92172 -0.00596038 0.105324 0.033485 
415 1 51.6758 8.33751 -10.3179 0.00458492 0.0098378 -0.00485518 
403 1 53.1174 10.5931 -6.68688 -0.0136004 0.029116 0.00777339 
397 1 53.1531 10.4324 -8.00334 0.0143111 0.00428753 -0.0353704 
398 1 52.3009 9.42496 -9.59155 -0.00966782 0.00994107 -0.00409518 
17 1 52.9013 9.10615 -8.40561 -0.0237646 0.0022012 -0.013048 
409 1 53.4915 11.6382 -8.85695 0.00288958 -0.00878039 0.00126919 
404 1 53.0766 9.88093 -10.5082 -9.90822e-05 -0.00413133 0.000699891 
411 1 53.5624 11.1365 -10.2422 -0.0122544 0.00341424 0.0168784 
278 2 36.1782 -5.21593 9.60611 -0.0442111 -0.0391972 -0.0281528 
412 1 53.4618 9.23178 -11.6232 0.0163092 -0.00166234 -0.00680591 
15 1 51.1315 -7.03289 -2.45984 -0.0244672 0.0130183 -0.00506367 
8 1 51.1796 -7.22542 -0.83012 0.0128546 0.0191335 0.0324252 
7 1 52.1792 -7.55709 0.0935746 0.00605807 0.011416 0.0101442 
25 2 52.663 -7.16501 -4.37835 -0.0501246 0.0906083 0.0401871 
13 1 52.0377 -7.30276 -3.4331 -0.00536499 0.0211288 0.0259039 
27 2 50.6122 -6.28622 -2.98434 -0.0236283 -0.0876565 -0.0426553 
430 2 56.7515 -0.688702 -5.62504 -0.00635637 -0.0418668 -0.0419766 
420 1 56.2156 0.220903 -5.87817 0.0190181 0.030495 -0.0123063 
405 1 53.1632 1.67159 -6.85915 -0.0167279 -0.0339063 -0.00641342 
418 1 54.5396 1.395 -6.16889 0.0162365 0.0017167 -0.0062434 
408 1 55.5784 1.32169 -5.22492 0.0130155 -0.0205464 -0.0132857 
136 2 56.2251 2.25244 -4.8406 0.110437 0.0527175 0.0667638 
29 2 51.2983 10.1645 -3.58187 0.0652773 0.0702731 0.0612967 
422 2 54.2775 10.901 -3.99791 0.00130028 0.0375453 0.112139 
14 1 53.5122 10.294 -3.81296 0.0187989 0.00166486 -0.00762975 
410 1 52.1558 9.98032 -4.06791 -0.0146322 -0.00967808 -0.0290463 
413 1 52.372 10.7161 -5.56942 0.0184719 -0.0075616 -0.00237925 
28 2 49.378 -7.91326 1.44428 0.0669682 0.0222927 0.0980995 
1 1 51.5109 -7.13922 1.50042 0.0157656 0.000765905 -0.00976122 
16 1 50.2595 -7.63861 2.02128 0.00770857 -0.0332893 0.0163791 
2 1 52.5429 -6.4175 2.00084 0.015035 0.0115068 0.000267376 
31 2 48.8794 -6.84931 3.44375 -0.0583321 -0.049695 0.0366341 
19 1 49.8192 -7.03345 3.18461 -0.0200891 -0.00227896 -0.0103099 
12 1 52.648 -5.63514 5.74038 -0.011801 0.00325596 0.00593012 
32 2 49.7441 -7.12344 5.64301 0.00256079 -0.0153406 -0.0296154 
20 1 50.7925 -7.1451 5.53115 0.000595836 0.0455143 0.00560785 
10 1 50.9406 -6.84505 4.10928 -0.0337933 -0.014796 -0.0550097 
4 1 52.0794 -6.12741 3.45517 -0.0138662 0.0307602 -0.000788148 
6 1 52.7704 -5.288 4.29529 0.022748 -0.00488082 -0.00528231 
3 1 53.9663 -6.76556 1.90683 -0.0223485 0.0143654 -0.00354649 
9 1 54.9353 -6.17599 2.93442 -0.011816 -0.0115361 0.0349661 
5 1 54.1517 -5.3359 4.16011 -0.00607265 -0.00955948 0.00840391 
26 2 56.6775 -7.94148 3.16243 0.0307699 0.0827682 -0.058864 
11 1 54.9215 -5.45403 5.14652 -0.00287478 -0.0045339 0.0155586 
18 1 56.0112 -7.05607 3.66638 -0.00874947 -0.00283524 -0.0115438 
30 2 56.1181 -7.50583 5.62247 -0.0732966 0.0136217 -0.0202752 
34 2 55.2388 -4.45161 7.20846 -0.0682155 -0.0184814 0.0005747 
21 1 55.7895 -6.72767 5.02142 -0.0127917 -0.0135713 0.0146696 
22 1 54.8056 -4.74703 6.2223 0.0211827 -0.00596195 0.0139818 
23 1 51.3217 -6.01531 6.28211 0.00504372 -0.00880226 0.00340031 
35 2 51.4951 -6.42289 7.30387 0.00156077 0.0213156 0.02993 
36 2 52.9454 -4.07238 7.23919 0.0268043 0.0363161 0.0773838 
24 1 53.4088 -4.66606 6.58595 0.0165416 0.02375 0.00181142 
283 2 36.7151 -4.90327 9.14139 -0.111924 -0.0160046 -0.0298 
540 2 37.5118 4.40889 10.3135 0.0629957 0.0234626 -0.0467607 
406 1 52.5729 8.02547 -11.5075 0.0150314 0.00984247 0.0274863 
537 2 37.2257 4.85172 10.8604 0.00110315 -0.0180476 0.00783327 
427 2 53.8987 11.7681 -10.9858 0.0181973 -0.041178 0.0463805 
424 2 54.2933 9.81529 35.8715 0.023663 -0.103892 0.0138586 
416 1 52.1124 7.90863 35.075 0.00156893 0.0233693 0.0054135 
519 1 42.4154 2.86612 22.6434 -0.0010491 -0.0095034 -0.00942147 
531 2 41.3688 3.34481 22.8905 0.074765 -0.0381485 0.0163497 
529 2 42.7343 2.51906 20.6909 0.0207192 0.031179 -0.0460173 
512 1 43.1759 2.80754 23.9264 0.0244728 -0.0119045 -0.003029 
517 1 43.1468 2.30384 21.5294 -0.0128306 -0.00837162 0.0112554 
506 1 44.6035 2.49536 23.8824 -0.00421387 -0.0179968 0.0177271 
505 1 45.4295 2.37484 22.8431 -0.0143713 0.00813749 0.00776366 
522 1 47.2881 3.57706 21.6677 0.00239791 0.00221281 0.0150582 
507 1 46.4437 3.19492 22.7324 0.0134286 -0.0210111 -0.00131278 
513 1 47.0727 3.50103 20.0905 0.00675891 0.00153908 -0.010325 
511 1 44.6005 2.22021 21.6441 0.0112667 -0.0294221 0.0151914 
521 1 45.9433 2.93046 19.2542 0.00379043 0.0139484 -0.0121469 
518 1 45.2045 2.64172 20.3544 0.00590841 0.00519073 0.00249633 
530 2 45.6375 3.33393 18.1519 0.00368691 0.0159195 -0.0346549 
509 1 47.0148 3.20749 23.858 0.0115155 0.00466945 0.0030535 
515 1 48.0391 4.02435 23.8395 0.0361586 0.0242347 0.00992515 
525 1 48.3882 4.31848 22.3801 -0.0048036 0.0254618 -0.0212808 
533 2 48.0771 3.53138 19.4717 -0.149648 0.0811158 -0.0205584 
534 2 49.3931 4.53631 22.4744 -0.0193348 0.032641 -0.0571847 
535 2 40.8875 3.03812 25.1997 0.0033503 -0.00202993 -0.0804513 
520 1 42.0723 2.93986 25.1304 0.0059089 0.0150595 -0.000299581 
523 1 42.9407 2.71653 26.3594 -0.0014222 -0.00181707 -0.00158207 
536 2 44.2112 2.50823 28.9258 0.023556 -0.0283389 -0.0105316 
508 1 45.1622 2.55301 25.164 0.0293419 0.0199721 -0.0138447 
527 1 46.0313 2.43881 27.7629 -0.000354195 0.00759742 0.0185864 
516 1 47.0535 2.90402 26.6313 -0.0155975 0.00671076 0.00718341 
528 1 48.3099 3.26654 26.1782 0.00848123 -0.00288568 -0.0267484 
524 1 44.6243 2.37207 27.9112 -0.00799788 0.0109028 0.013854 
514 1 44.2737 2.51433 26.366 0.00377029 0.00952557 0.0047803 
510 1 46.4011 3.0272 25.1648 -0.00749277 -0.00374508 0.019705 
64 2 47.8877 10.4711 30.8414 0.0424688 0.0866746 0.0743528 
526 1 48.724 4.37646 25.1119 0.0108963 0.00353514 0.0111207 
538 2 49.5782 5.08944 25.1079 0.0269142 -0.0231902 -0.0241628 
464 2 47.0404 10.5382 30.5377 -0.0675228 0.107944 -0.0623305 
428 2 52.7686 8.07739 33.2743 -0.00658279 -0.0789133 -0.103686 
431 2 50.9159 7.48749 33.5809 0.0378071 -0.032143 0.082028 
419 1 51.7902 7.74372 33.9452 0.0143016 0.00677071 0.00661491 
284 2 41.9156 18.3172 4.28349 -0.0199391 0.0414165 -0.165466 
210 2 41.5624 19.1201 4.43212 0.0341627 0.0569031 -0.0947586 
423 2 53.4271 12.7164 -8.63304 -0.0108518 0.0689517 -0.102036 
66 2 48.1618 19.257 18.0167 0.0488436 0.0222486 -0.0284995 
47 1 48.5015 20.0627 17.6571 0.0146138 -0.00932766 -0.00557472 
53 1 45.1444 21.9339 17.3957 0.0168923 -0.011758 0.0117608 
39 1 46.5961 22.5726 15.4944 -0.0122268 -0.0156046 -0.00685119 
45 1 46.5597 21.4731 16.5594 0.0163328 -0.0155974 0.00194304 
50 1 44.5637 22.7607 16.8414 -0.00542378 0.0122578 0.00277181 
65 2 45.6869 21.5007 18.4345 -0.00265194 -0.00646135 -0.0780936 
62 2 45.9425 20.8304 15.8441 0.00431285 -0.0262252 -0.0121039 
43 1 44.556 23.5513 15.7369 0.00420353 0.0264441 0.0102205 
37 1 45.7219 23.4468 15.0279 -0.00126491 -0.0196836 0.0218248 
41 1 48.1024 23.0806 15.5486 -0.00480904 0.00996216 0.0316596 
57 1 48.0405 21.3012 17.1842 -0.0211844 0.00873261 -0.0123867 
54 1 50.0481 22.7719 16.167 -0.000696919 -0.0221729 0.0260632 
58 1 48.8542 22.3122 16.3143 -0.0234977 0.019208 0.00387791 
69 2 50.8064 22.225 16.8374 0.0115338 0.080642 -0.0763604 
60 1 50.5726 23.6784 15.0737 -0.00112725 0.00560247 -0.023302 
49 1 43.6674 24.3694 14.845 -0.0251475 -0.00833511 -0.00852376 
38 1 45.7819 24.7239 14.2843 0.00198465 -0.0163326 0.0118923 
51 1 44.2492 26.6786 13.4189 0.00670172 -0.0240495 -0.0256451 
44 1 44.3783 25.3777 14.1831 0.0144908 0.00974495 0.00163816 
40 1 47.2442 25.0919 14.4988 -0.0245036 -0.0079595 0.0120563 
61 2 42.5077 24.6599 15.3102 0.0154508 -0.0650452 0.0709516 
52 1 45.6068 27.0613 13.382 0.0103122 -0.00678383 0.011461 
55 1 46.9243 27.2982 13.4044 0.00450632 0.0421699 0.00511046 
63 2 43.6813 26.5832 12.3415 -0.00504394 0.0798731 0.0313153 
46 1 47.8286 26.0605 13.6068 0.000404119 -0.01421 0.0136801 
59 1 49.199 26.4781 13.6626 0.0453535 -0.0167572 -0.0384955 
68 2 49.7118 27.4701 13.2804 0.006692 -0.0843197 0.0618742 
70 2 51.7294 23.5492 14.7668 -0.0145402 -0.0083337 0.053265 
72 2 51.1487 25.7011 14.5796 -0.0913752 0.0241179 0.0361024 
56 1 50.1006 25.8258 14.5713 -0.00126603 0.0262791 -0.00849659 
48 1 49.8113 24.647 14.9134 -0.0161142 0.00865159 0.016162 
42 1 48.3152 24.1345 14.7923 -0.0041636 -0.000614893 -0.0119401 
67 2 47.6356 28.0115 12.8982 -0.02383 0.0134958 0.0251019 
132 1 71.4575 2.7464 11.0243 -0.0225337 -0.00532374 0.0145722 
80 1 73.1787 -11.4433 -8.45279 0.0200788 -0.0124185 -0.0241657 
385 2 78.515 -6.65965 -2.68541 0.106309 -0.0436501 0.0929999 
570 2 79.3633 -6.09832 -2.77744 -0.0692163 0.0110707 0.0893806 
105 2 78.2961 -3.49269 -1.72751 -0.0855265 0.0149265 -0.034575 
466 2 77.4086 -3.75257 -1.5847 0.0241368 -0.00963849 0.0638043 
142 2 71.599 2.02265 10.126 -0.0755203 0.110933 -0.016534 
469 1 71.6961 -11.796 10.5141 0.000554349 0.00366791 -0.00669535 
475 1 72.0157 -10.4084 10.0498 0.0250358 -0.0214324 -0.0248572 
496 2 65.7494 -0.0982218 11.6248 0.00221658 0.0187074 0.0105943 
498 2 69.6345 -10.4105 7.33568 -0.0836255 -0.0469004 -0.00451893 
485 1 70.5479 -10.7101 8.10059 0.00923481 -0.00779107 0.0356215 
482 1 71.8304 -9.99135 8.71875 0.00187843 -0.000786863 0.00708453 
108 2 72.6428 -9.30363 8.39127 0.0452291 0.000500146 0.0298155 
494 2 72.3617 -9.71367 10.946 -0.0102175 -0.00118943 -0.0850836 
120 1 70.2133 2.17478 11.648 0.00496002 0.0117106 -0.0340387 
135 2 81.797 -10.631 -7.42229 0.0407227 0.111135 -0.0369432 
87 1 73.6454 -11.8539 -7.29856 0.000186484 -0.00195996 -0.0471071 
128 1 68.6981 0.602376 10.7137 0.0265829 0.00223453 -0.00071037 
143 2 69.9817 2.08652 9.73925 0.0278244 0.00564137 -0.0351957 
140 2 67.63 0.595651 9.92828 0.00355228 -0.0106776 -0.0453262 
131 1 69.3349 1.83487 10.5726 -0.00329008 -0.0117509 -0.0106375 
118 1 68.1068 0.226221 11.9243 -0.0186694 0.00451588 0.0487265 
282 2 81.6674 -11.5494 -7.11461 0.0154153 -0.0468006 -0.0520461 
100 2 72.4375 -11.6197 -9.48309 0.0305551 0.062472 -0.140076 
501 2 69.8839 -11.7409 6.35368 0.0957404 -0.014368 0.0277101 
174 2 75.3879 -10.424 13.7568 0.0157812 0.0218065 -0.0245411 
173 2 76.5145 -10.4178 15.5452 0.038004 0.0768478 -7.70994e-05 
161 1 76.0921 -11.313 15.6465 0.0312419 -0.00730143 -0.0136419 
483 1 73.4969 -11.8345 12.0058 -0.00404423 0.0188557 0.000403423 
497 2 71.1038 -12.209 28.5434 0.0309837 -0.119383 0.00525071 
272 1 82.4744 -11.3856 16.3944 -0.00366867 -0.00099553 0.00122699 
262 1 83.5252 -11.4467 17.5281 -0.0146273 -0.0083391 0.0273783 
271 1 83.6036 -10.0314 17.9481 0.0193766 0.00567358 0.00764427 
280 2 82.7065 -9.43079 17.8358 -0.0279282 0.102329 -0.12275 
139 2 67.9613 -1.36895 17.4726 -0.0101643 0.147092 0.0221608 
121 1 68.6555 -1.35967 16.7298 -0.00432534 0.00726121 -0.0112953 
123 1 67.9902 -2.12135 15.6552 -0.00780773 0.0136389 -0.00891016 
124 1 66.7842 -0.52729 13.4196 -0.0222429 0.00336569 -0.0124751 
116 1 67.8471 -1.30754 14.3313 -0.00896556 -0.00542274 0.0233589 
110 1 69.2086 -0.387258 14.0624 -0.0265898 -0.0424999 0.0100989 
115 1 69.8241 -0.447414 16.5328 0.0019341 0.00326287 0.00809377 
109 1 70.0521 -0.293653 15.1417 -0.0257302 -0.00631471 -0.0072389 
122 1 70.8265 0.0877784 17.6475 -0.0188744 -0.0183293 0.0278417 
127 1 66.6968 -0.0520501 12.227 0.00705761 -0.00934914 -0.000986384 
112 1 69.3005 0.252337 12.9535 0.0117122 0.0251506 0.0107606 
111 1 71.1042 0.90469 15.1304 -0.00327042 0.033341 0.00902377 
114 1 70.3195 1.33832 12.9391 -0.0167706 -0.00100598 -0.0209897 
179 2 83.9866 -11.8304 27.6048 0.079967 -0.00252994 0.0225931 
532 2 71.4672 9.45828 33.1973 -0.0129612 -0.016121 0.0604802 
125 1 71.7876 1.07313 17.565 -0.00592364 -0.00467847 -0.00498715 
117 1 72.1545 1.30432 15.9247 0.00544732 -0.011923 -0.0169594 
138 2 74.2189 1.94631 16.3225 -0.031513 -0.0377915 0.0319865 
113 1 71.5373 1.54777 13.8539 -0.0223675 0.0182672 -0.00412756 
119 1 72.3236 2.38633 13.4147 -0.0279522 0.00632515 -0.00862127 
130 1 72.4563 2.78624 12.0299 0.00550434 0.00311026 -0.000958833 
129 1 73.6013 1.93379 13.9985 -0.0170257 -6.7465e-05 -0.0322134 
141 2 74.6683 1.66654 13.6105 -0.046353 -0.0267706 -0.0228875 
126 1 73.5106 1.58226 15.3982 -0.0211038 -0.000879833 -0.035064 
170 2 76.6574 -11.5758 17.9332 0.0112029 0.059849 0.0743793 
134 2 70.3046 0.580929 18.5638 -0.0066931 -0.0801137 -0.0930654 
137 2 72.0447 0.974078 18.6445 0.0433994 -0.00305553 0.0471862 
98 2 73.8838 4.12094 17.8844 -0.0249686 0.0496102 0.0247504 
162 1 75.0989 -11.5746 13.7491 -0.0320797 0.0111388 0.00684744 
158 1 76.5137 -11.8775 16.78 -0.00601088 0.00426032 -0.00367836 
493 2 73.5132 -10.9692 12.1554 0.0156724 -0.0091208 -0.00790845 
99 2 75.1986 34.659 -6.58103 -0.0498346 -0.0450313 0.132303 
481 1 72.338 35.6392 11.4409 -0.0102597 -0.0131988 -0.0229169 
85 1 74.3646 35.4807 -6.24267 -0.0240478 0.0167991 0.00725187 
476 1 72.3432 34.1639 11.5221 -0.0220379 0.0273651 0.0144122 
477 1 70.5219 35.8818 8.19538 -0.0129116 0.00123823 -0.00557415 
314 2 66.5718 23.2713 8.01032 -0.0187569 0.0730742 0.0520291 
386 2 80.0303 25.6094 6.14818 -0.047844 -0.0971204 0.0137736 
500 2 70.6601 33.873 5.81263 0.0653162 0.0130016 -0.0198845 
486 1 68.1408 28.0393 9.62581 0.00460041 0.0301241 0.0132774 
502 2 67.7331 27.0619 9.88768 0.114358 -0.0512515 0.0226372 
489 1 68.5672 29.1008 9.08656 0.000963411 -0.0102338 0.0102304 
492 1 69.2156 30.2078 8.86753 -0.0302965 0.0058872 -0.00733639 
393 2 76.2878 26.8041 11.4176 0.0516186 -0.116618 0.0367361 
381 1 77.3477 26.7681 11.0595 -0.00310134 -0.0202964 -0.00252726 
495 2 76.5684 25.67 9.33448 0.0539159 0.0789824 0.00663333 
378 1 77.5876 25.9661 9.81614 -0.0133795 0.0206884 0.00104101 
375 1 83.5904 25.5022 8.3196 0.0131455 -0.000192998 0.00109377 