ITEM: TIMESTEP
870000
ITEM: NUMBER OF ATOMS
576
ITEM: BOX BOUNDS pp pp pp
-1.2000000000000000e+01 8.4000000000000000e+01
-1.2000000000000000e+01 3.6000000000000000e+01
-1.2000000000000000e+01 3.6000000000000000e+01
ITEM: ATOMS id type x y z vx vy vz 
454 1 8.03567 6.33776 2.30863 0.0195607 -0.00483396 -0.0169076 
86 1 10.0021 4.10102 -11.2014 -0.00274608 -0.00788883 0.00200554 
79 1 11.2703 4.3884 -10.8392 0.00040187 -0.00019313 -0.0118304 
444 1 7.34693 7.31803 0.421162 0.0223306 -0.0270497 -0.00785608 
465 2 10.1216 6.67801 3.16435 -0.013186 0.0422155 -0.0705608 
97 2 11.7642 4.96416 -9.89816 -0.00894917 0.0153632 -0.0577112 
462 2 7.81858 6.87985 6.25026 0.0990637 -0.00308084 -0.0461828 
463 2 3.01229 8.5423 -2.41771 0.0238797 -0.0117487 -0.0167436 
451 1 3.40563 8.1302 -1.6072 -0.00859571 -0.0109652 -0.00374427 
442 1 4.67617 8.38716 -0.675061 0.00652288 0.0200074 -0.0170587 
448 1 2.27752 7.50326 -0.611788 0.0274879 0.0238551 -0.00497317 
452 1 6.07264 8.78772 -1.14777 -0.000102112 0.0059015 -0.0101786 
455 1 7.3388 8.11695 -0.871255 -0.00397614 0.00323654 -0.00531119 
467 2 7.96469 8.746 -1.5511 0.0152373 0.0196523 0.0164865 
458 2 4.43088 1.37584 3.19933 0.0690711 0.00771369 0.0573109 
459 2 1.27238 3.81047 2.63769 0.101294 0.060469 0.0366339 
449 1 4.46276 2.56693 3.10325 0.0213111 -0.0300895 0.00296893 
441 1 5.44988 3.69054 3.22479 0.00144352 -0.0293075 -0.00239333 
446 1 3.49437 2.84427 2.16566 -0.01505 0.00297334 -0.000139299 
435 1 5.60122 4.94584 2.5622 0.0233567 -0.000860618 0.0115598 
445 1 1.79401 4.71365 1.97098 -0.0139676 -0.0112511 0.000777072 
439 1 3.16636 4.39522 1.55811 0.00114462 -0.000590969 -0.0288034 
461 2 6.37217 3.60682 3.74983 -0.0336486 -0.0139641 0.0819909 
443 1 8.97705 6.7969 3.31005 0.0181801 0.0313474 0.00693563 
453 1 8.14616 7.23032 4.44977 0.0166682 0.0241624 -0.00912734 
450 1 7.67474 7.34178 5.41256 -0.0176443 0.015141 0.0187742 
433 1 4.2512 5.31882 1.90061 0.0155874 -0.00950763 0.000559683 
460 2 1.2395 7.33486 -0.875927 -0.00397181 -0.029026 0.00742795 
457 2 1.07903 7.16813 1.99913 -0.046854 -0.030263 -0.132024 
447 1 1.566 6.18488 1.5857 0.0195654 0.00502415 -0.0203015 
437 1 6.57036 5.95206 2.24616 -0.0165227 -0.0102755 0.00587654 
434 1 4.00889 6.59614 1.19533 -0.0183121 -0.0374808 0.0137133 
436 1 4.90455 7.46193 0.738407 -0.00217271 -0.0128224 -0.0148454 
438 1 6.19996 6.84468 0.980935 -0.00565317 -0.00334586 -0.00477893 
440 1 2.5368 6.84383 0.635226 -0.0110746 0.00482689 0.0145862 
468 2 9.70109 7.02002 1.17445 0.0518747 -0.0133518 0.0255486 
456 1 8.59712 6.80145 0.93262 0.000928881 -0.00157125 0.00581106 
81 1 10.1842 2.52233 34.9279 -0.00146795 -0.00579538 -0.0169705 
117 1 -11.9696 -2.17268 18.0743 -0.0128946 0.00304879 -0.0187653 
75 1 11.5729 2.86599 34.7813 -0.00318313 0.00388382 -0.0220116 
264 1 -9.94389 -11.5183 22.5453 -0.0103309 0.0220776 -0.0111352 
115 1 -11.1884 -1.41737 15.6142 -0.0282273 0.0135341 -0.0116145 
109 1 -10.4233 -1.12517 16.571 -0.00400397 0.0254203 -0.0227863 
111 1 -10.7256 -1.57954 17.9727 0.00907207 0.00263618 0.010189 
121 1 -10.7577 -1.18915 14.1802 -0.0019693 -0.00180905 -0.0111724 
139 2 -11.1993 -2.15183 13.6846 0.0881889 -0.113069 -0.0487569 
110 1 -9.05082 -0.787324 16.5149 -0.00399145 -0.00647996 -0.013199 
116 1 -8.27069 -0.524822 15.3399 -0.0327165 0.00307618 -0.0310143 
123 1 -9.2658 -0.983363 14.1422 -0.025007 -0.0180515 -0.0194924 
124 1 -7.00483 -0.370414 15.1563 -0.00712932 0.00208378 -0.00411593 
112 1 -8.0833 -1.01785 17.3964 0.0122595 -0.016247 0.0198213 
496 2 -6.78258 -0.321191 14.138 0.0599585 0.0928525 0.114642 
127 1 -6.2221 0.189974 16.3525 -0.00871757 -0.0121641 -0.0142102 
275 1 -10.1805 -11.4156 23.9865 0.0163401 0.00632026 -0.0177261 
274 1 -10.6257 -11.2075 20.2164 -0.00614861 -0.00976035 0.0170894 
575 2 -9.60832 -11.4638 17.814 -0.159042 -0.104527 -0.0142933 
83 1 11.7599 1.2762 32.8649 0.00281214 -0.00966613 0.0227187 
263 1 -9.38722 -11.6823 19.766 -0.0202791 0.0270456 0.00499464 
273 1 -8.67064 -11.6108 18.3461 -0.00975761 -0.014572 0.0029784 
93 1 10.3907 1.073 32.8371 0.0169044 0.0310872 -0.0112282 
90 1 9.96536 1.72375 33.8308 -0.0105632 -0.00246544 -0.000372647 
129 1 -11.6209 -3.02609 20.1151 0.000488273 0.00419411 0.00477224 
101 2 8.36663 3.21469 35.6217 -0.0381318 -0.0325099 -0.0346767 
142 2 -8.49837 -4.08799 21.3442 -0.0781429 0.00668761 -0.00177051 
130 1 -9.02132 -3.33955 20.7901 0.00560048 -0.0216332 0.00590621 
119 1 -10.1689 -2.94823 20.0344 0.0121684 -0.00197227 -0.0138919 
113 1 -9.82928 -2.20603 18.9498 -0.02971 0.0119121 0.0384042 
132 1 -8.06049 -2.23596 21.1919 0.0127868 0.00976169 0.0165512 
114 1 -8.60882 -1.72869 18.6195 -0.0216616 -0.0228127 -0.0246446 
120 1 -7.96979 -1.61179 19.8678 -0.0114089 0.00857471 0.00258983 
118 1 -6.70396 -0.478614 17.6462 -0.00952045 0.0428622 0.00261367 
140 2 -5.70979 1.03559 19.0298 0.0168861 -0.00547577 -7.87989e-05 
143 2 -7.31022 0.153354 20.8121 -0.0312737 0.0640685 -0.0728382 
131 1 -7.35591 -0.241958 19.7296 -0.00793394 -0.00787021 -0.00214707 
128 1 -6.54144 0.314176 18.8293 -0.0119362 -0.00530374 0.0143734 
385 2 -11.8751 0.554109 31.4687 0.0143435 0.177488 0.0195434 
89 1 9.4194 3.43879 35.7456 -0.0139763 0.00563915 0.00889726 
276 1 -10.8534 -11.6714 21.54 0.00801018 0.0219754 0.0347018 
286 2 -11.4083 -11.058 19.6332 -0.0460311 0.119592 0.00616714 
288 2 -11.7424 -11.0723 21.8933 0.0331106 0.0314591 0.00611379 
569 2 10.561 29.6479 -11.2795 -0.0121967 0.0142605 0.115606 
388 2 -10.0984 32.8951 9.81411 0.0924187 -0.109311 -0.0858476 
548 1 9.53686 34.5283 -10.7056 -0.0081026 -0.00874402 0.00415833 
555 1 10.6274 33.9416 -10.0111 -0.0410918 -0.0161569 0.000843688 
541 1 10.5866 32.0008 -11.2865 0.026474 -0.00467615 -0.0169967 
543 1 10.8317 30.6081 -10.9374 -0.00166236 -0.010279 -0.0153289 
542 1 11.902 33.0338 -10.7757 -0.0314394 0.0171089 -0.00891835 
568 2 9.98601 33.9796 -7.91547 -0.103084 0.0119095 0.10647 
376 1 -11.7891 35.7673 9.71635 0.00976561 0.0125628 -0.00941344 
377 1 -10.8174 29.8392 9.00775 0.00126313 0.0158569 0.0226086 
464 2 -5.26427 28.8012 1.68368 0.103773 0.00820128 -0.105496 
64 2 -5.32852 28.4998 2.40692 -0.0245886 -0.0390143 0.0732025 
389 2 -10.2613 28.9695 9.33128 0.107586 0.0223658 0.077107 
373 1 -9.99449 33.1033 7.98586 -0.0136703 -0.00429071 -0.0128975 
386 2 -8.8612 30.9074 8.02959 0.0290419 0.0612526 -0.0464884 
387 2 -9.08083 32.5017 7.50525 -0.0249035 -0.0754642 0.0850999 
374 1 -10.0785 30.8221 8.26771 0.00915262 -0.0035336 -0.0109975 
367 1 -10.9257 32.036 8.19241 -0.00664374 -0.00767907 -0.011558 
368 1 -11.593 34.4788 9.56683 -0.0006604 -0.0186897 0.000898405 
375 1 -10.2433 33.9214 9.18484 0.0108298 -0.0318259 -0.0217941 
567 2 8.55369 34.7268 -10.0096 -0.00690924 0.0164175 0.0330468 
559 1 11.8203 33.3902 -7.55129 0.010128 -0.0183429 -0.0280575 
556 1 10.8843 33.9601 -8.61994 -0.00421178 0.0224242 0.019913 
244 2 2.73588 24.9214 17.9298 0.0369459 -0.0128346 -0.0371899 
247 2 0.787003 25.7491 19.3291 0.0174329 -0.0708473 0.0350734 
232 1 2.78584 25.2897 18.9184 -0.0156463 0.0148542 0.0235211 
243 2 5.14922 24.9195 17.5397 0.0245819 -0.00486176 -0.0218919 
245 2 9.33542 25.668 22.7399 -0.0618756 -0.0290079 0.00236596 
235 1 1.8001 25.8441 19.7034 -0.0294637 0.00699918 0.00369297 
251 2 0.0936946 27.3086 20.6824 -0.0955223 -0.0373051 0.0433642 
219 1 6.05236 26.4142 22.1845 0.0214508 -0.0121498 -0.00479191 
239 1 0.771714 27.2457 21.5395 -0.010218 0.0146005 0.0150239 
221 1 5.02728 27.3456 22.8451 -0.00424189 -0.00818297 -0.00986069 
218 1 4.40101 26.089 20.5185 -0.000867175 -0.00814388 -0.00443362 
252 2 2.17273 29.0273 24.7849 0.0487827 0.0454995 0.0560387 
240 1 3.01561 28.4621 24.4133 -0.0190938 0.0139491 0.0101912 
228 1 2.66923 27.7405 23.3864 0.0331462 0.0301487 0.0148184 
222 1 3.65308 27.2633 22.4953 0.00237011 0.035845 0.00549927 
220 1 3.28321 26.4444 21.2429 0.00237846 -0.00352589 -0.0232308 
236 1 1.32391 27.7248 22.7977 0.0223641 -0.0104412 -0.0224105 
226 1 2.02317 26.3836 20.8014 -0.00654326 -0.0193886 0.00838576 
217 1 5.70745 25.9265 21.0698 0.020954 -0.011323 0.00352718 
224 1 4.1395 25.3689 19.4142 0.00778621 -0.00478703 -0.00769271 
231 1 5.2339 24.9124 18.6979 -0.0182281 0.00191981 0.00944173 
233 1 8.40556 25.8181 22.2884 0.00899507 0.0153746 0.0101962 
230 1 8.47447 25.6395 20.8731 0.00699184 0.000262459 -0.00633211 
229 1 6.54152 24.7078 19.3218 -0.0203704 0.00266777 0.00538924 
242 2 9.36191 25.5391 20.3234 -0.0308992 0.0763414 -0.0915007 
241 2 7.10774 23.9913 18.5906 -0.0122431 0.00807763 -0.0133894 
225 1 7.08039 25.9517 22.9961 0.00219371 0.00983871 0.00823775 
223 1 7.11636 25.5842 20.4235 -0.0328452 0.0357123 -0.0136225 
256 1 -7.96222 34.836 23.1025 0.0157191 -0.00459534 -0.00754198 
320 2 -11.7311 27.0932 24.0781 0.0645545 -0.00613354 0.060899 
565 2 9.53224 34.8549 34.9348 0.0156963 -0.0338295 -6.80696e-05 
547 1 9.63162 32.7496 35.8379 -0.00362359 0.0379065 -0.0006652 
255 1 -7.25756 35.2681 20.6044 -0.0167785 -0.00226799 0.0207887 
253 1 -6.87325 34.071 21.2155 0.0210334 -0.0185938 -0.0144032 
254 1 -7.53443 33.7903 22.5451 0.0255511 -0.00228466 -0.00939603 
261 1 -6.75467 35.0894 19.1671 -0.0229093 0.0103099 0.0109945 
270 1 -7.6659 35.4461 18.1067 0.00746882 0.00260208 -0.0307679 
269 1 -6.04454 34.0006 18.813 -0.0178908 -0.0147069 -0.00295956 
266 1 -5.46449 32.984 19.4031 -0.00318501 0.00195032 0.0001279 
259 1 -5.95405 32.9317 20.8217 -0.00411106 -0.0246709 -0.0187096 
281 2 -5.00996 32.2701 18.7347 0.00977568 0.0870208 -0.0367088 
265 1 -6.19928 31.7262 21.6359 0.0180318 -0.000336488 0.000613404 
277 2 -6.22183 30.9214 20.8467 0.0817501 0.0307577 -0.0322779 
267 1 -5.67967 32.0328 22.9093 -0.00797374 -0.0234846 0.0187051 
248 2 5.64077 35.2212 29.328 0.0155734 0.00349588 0.0483855 
357 2 4.57117 29.0677 25.7273 0.0021139 -0.0784345 -0.0710421 
238 1 4.37976 28.5384 24.7033 -0.0128289 0.00232021 0.0362723 
227 1 5.38492 28.0092 24.0246 0.00174713 0.00643141 0.000788565 
237 1 6.37976 27.6549 24.8682 0.0220356 0.00883251 0.00566814 
249 2 6.63236 28.1096 25.7055 0.0507792 0.0498839 0.0804264 
234 1 7.11492 26.501 24.5077 0.00743803 0.0366604 -0.015231 
246 2 8.03893 26.1161 24.8999 -0.0477773 -0.0585733 -0.0728181 
262 1 -8.25055 34.7952 24.4828 -0.000220127 -0.028488 0.0171965 
272 1 -9.13221 35.8321 24.8949 -0.00170397 0.016852 0.0127242 
260 1 -6.65214 32.9706 23.3906 -0.0223131 -0.0220961 0.00127182 
280 2 -8.16819 33.4602 26.465 -0.0407674 -0.00824144 0.059196 
271 1 -7.82376 33.6143 25.5888 0.0382635 0.0271159 -0.0164466 
268 1 -6.65115 32.9892 24.8878 -0.0132257 2.39414e-05 -0.0182223 
279 2 -5.9603 31.2725 23.6303 -0.0166355 0.00916187 -0.0226441 
176 2 5.5602 35.2676 28.3511 -0.0350082 0.0455908 0.0398257 
561 1 11.6856 29.9002 34.8101 0.00104197 0.0121894 0.0123427 
558 1 10.5274 29.8852 34.3899 -0.0249393 -0.0248648 -0.00162123 
557 1 9.04524 31.5944 34.8972 -0.00871653 0.00247825 -0.0116308 
549 1 9.01851 29.9556 33.8521 -0.0158636 0.0113578 -0.00998331 
554 1 8.37788 31.1877 33.9713 0.000335207 -0.00710171 0.0215792 
566 2 9.08639 29.1646 33.2632 0.00305372 -0.0890048 -0.0248163 
285 2 -7.52136 34.967 17.006 0.0528939 0.0810635 0.0233971 
532 2 11.2729 31.0388 13.2235 0.0239083 -0.0618983 0.0132268 
257 1 -8.60757 35.759 20.9623 -0.0068474 0.0158503 -0.0196985 
553 1 9.70357 34.1738 35.7561 0.000960286 -0.00868445 -0.0353767 
258 1 -8.56696 35.9157 22.3449 -0.00952891 -0.00630128 -0.022796 
355 2 13.5285 5.12326 -11.947 0.00739023 0.0242715 -0.0218197 
528 1 35.6713 -1.83771 17.931 0.0132217 0.0261533 -0.000931594 
574 2 29.9557 11.1419 29.2761 0.0520263 0.026511 0.0814226 
352 2 30.1379 10.3914 28.8822 -0.0957945 -0.0426544 0.142029 
514 1 34.7245 -0.568948 21.6347 0.00256798 6.10255e-06 -0.0206003 
516 1 35.0337 -1.64252 19.0144 -0.0124765 -0.000338301 -0.0125015 
527 1 33.5448 -0.930659 19.3913 0.0105041 -0.00397146 -0.0113326 
508 1 35.9403 -1.43191 21.3265 -0.00392963 -0.0178825 -0.000225932 
520 1 36.1372 0.516454 23.2897 0.0385153 -0.0143726 0.00280893 
523 1 35.1535 0.389569 22.3085 -0.00750139 0.00876781 0.0303454 
524 1 33.6564 -0.218598 20.5714 0.0146608 -0.0051182 0.0042725 
536 2 32.7298 -0.0414627 21.1754 -0.074694 -0.0639433 -0.00840993 
74 1 13.1847 4.31124 35.3433 0.0154028 -0.0201622 0.00209386 
106 2 14.6596 -0.461003 31.9394 -0.0243416 0.067419 -0.11407 
539 2 34.2599 3.87548 33.3994 0.0732066 0.000181537 0.0204817 
94 1 12.6218 0.0373614 32.6065 -0.0133914 -0.00706325 -0.00626989 
96 1 14.0743 0.0450496 32.8365 -0.01778 0.00431309 0.00275075 
77 1 12.2534 2.04786 34.0478 0.0272615 0.0368653 -0.00690986 
91 1 16.2861 4.4063 34.7666 -0.0239084 0.000374921 0.016367 
73 1 12.0574 3.77826 35.8695 -0.023278 -0.0224767 0.0238205 
92 1 16.3594 1.80729 34.4765 -0.00299963 -0.0353694 0.0114199 
82 1 15.5115 3.08405 34.6268 0.0045223 0.0110322 -0.0241453 
76 1 14.083 3.16658 34.8072 -0.0125534 -0.0126807 -0.0180876 
95 1 15.6514 0.599009 34.0497 0.0278464 0.00950416 0.023654 
84 1 14.5689 1.32613 33.3653 -0.00413037 -0.0268767 0.00136179 
78 1 13.6047 1.92334 34.3244 -0.0169002 -0.00634472 -0.00242711 
107 2 15.975 -0.327292 33.523 0.0291428 -0.0777402 0.0187427 
104 2 17.4323 1.8412 34.7526 0.00509955 0.0500339 0.0244047 
88 1 16.6761 5.68155 34.4495 -0.00675603 0.00514763 0.019005 
103 2 16.5911 6.74091 34.4393 -0.0623814 -0.0930031 -0.00116304 
179 2 34.922 3.30381 33.6986 -0.0246613 -0.109106 0.0209202 
278 2 34.0575 8.03163 14.7045 0.0692474 -0.0491306 0.000403372 
283 2 34.7505 8.33421 15.1204 0.104506 -0.0404827 -0.0373031 
102 2 11.7634 -0.0376266 31.6947 -0.03805 -0.0707271 -0.0752076 
421 2 15.8501 29.2598 -8.59915 0.0583716 0.0463917 0.129866 
326 1 17.9549 22.0963 6.72545 0.0114202 -0.0217662 -0.0250174 
562 1 14.8039 29.5146 -9.14257 -0.0274689 0.0134366 -0.0172153 
576 2 14.4559 28.8824 -10.0013 0.0806743 -0.0155038 0.0636208 
545 1 12.3096 30.3634 -11.2246 0.0041322 -0.00828901 0.0150617 
560 1 13.6712 31.5416 -7.88258 0.00725848 0.00752872 0.0271862 
552 1 13.7517 30.8075 -6.76626 0.0115378 -0.00670103 0.00378698 
343 1 15.4963 22.8112 6.64569 0.00922053 -0.0133716 -0.014976 
550 1 12.5042 32.3688 -8.29013 0.0214611 -0.00825348 -0.00458191 
98 2 34.1706 26.2322 9.23788 -0.0254283 0.019892 -0.0449527 
564 1 13.9259 30.6428 -9.0251 0.0144688 0.0221091 0.0185549 
334 1 16.3644 23.3534 5.43257 -0.00116847 -0.00187071 0.00940063 
328 1 17.7602 22.9857 5.63468 0.000171754 -0.00693716 -0.0198977 
546 1 13.2387 30.8941 -10.3154 -0.0117373 0.00215468 -0.0254709 
544 1 12.7122 32.2328 -9.91193 0.0225516 0.000856112 0.0133818 
563 1 13.3725 30.427 -5.62211 0.00665561 -0.0304119 -0.00520883 
177 2 14.1444 29.7221 -5.21994 0.0351591 -0.0972659 -0.0359126 
572 2 12.6034 30.9921 -5.07657 0.0414984 -0.0865196 0.044289 
358 2 20.8199 26.6746 3.42725 0.0351532 0.122776 0.0452167 
216 2 22.9089 25.5929 5.07049 0.072434 0.0275187 0.00789838 
344 1 15.7144 24.217 4.44539 0.0241894 -0.00277746 -0.000684467 
336 1 18.0348 24.8282 4.1498 0.00963362 0.0153036 0.00890887 
347 1 16.6412 25.1632 3.86651 -0.0125461 -0.0304574 0.0139841 
359 2 16.3503 26.0733 3.57342 -0.00690344 0.036164 0.0206061 
356 2 14.4759 24.2592 4.37887 -0.0181314 -0.0453433 -0.0106586 
360 2 18.4753 26.1349 2.51016 -0.017478 -0.0533639 0.0719052 
346 1 20.1688 25.9202 4.02933 0.00418723 -0.000691685 0.0234593 
354 2 23.4785 24.3111 7.11141 0.0417768 0.059271 -0.0212674 
342 1 22.5369 24.2276 6.49159 4.13243e-05 0.00337274 0.0226265 
348 1 18.9431 25.7622 3.53282 -0.00201092 0.00541167 -0.0048971 
335 1 20.6484 24.9349 4.75975 -0.00538725 0.00262342 0.00290825 
345 1 22.0926 24.9166 5.26463 -0.0195219 0.0196047 -0.000846961 
329 1 19.8659 23.9994 5.53985 0.00447504 -0.00734007 0.00460932 
330 1 18.5725 24.089 5.39032 0.0113342 0.0230731 0.0118838 
135 2 23.6665 33.5889 4.27068 -0.020925 0.111132 0.0148367 
282 2 23.0713 34.278 4.47451 0.0262805 -0.0557883 0.0481044 
339 1 17.9622 20.2541 8.41487 0.0121903 -0.00506287 0.00984221 
332 1 17.1093 21.0317 7.59577 -0.000529925 -0.0319886 -0.000794167 
340 1 15.655 21.4772 7.25639 -0.0117546 -0.0313201 -0.0298069 
351 2 17.5363 19.5087 9.15213 -0.0695712 -0.000131259 0.0195849 
349 2 19.5345 19.7864 9.79793 1.1556e-05 0.0120493 0.0316856 
341 1 21.9932 23.1972 8.66264 0.0127747 0.00203791 -0.00893063 
333 1 21.4795 23.467 7.30691 0.0232723 0.00369486 -0.0175443 
353 2 23.087 23.6768 9.08602 -0.00354568 0.0264435 0.0235978 
338 1 21.1343 22.2116 9.26517 -0.00359869 -0.0200585 0.0147118 
350 2 21.3853 22.0551 10.3264 -0.106076 -0.0332216 0.0350005 
327 1 20.1892 23.0998 6.76354 -0.00951306 -0.00359731 -0.00112166 
337 1 19.1779 20.6156 8.97214 0.00700963 -0.0340975 0.0171983 
331 1 19.7244 21.8709 8.75517 -0.013705 0.00696269 0.00953348 
325 1 19.1166 22.3301 7.45877 -0.0191207 -0.00546964 -0.029673 
571 2 12.4376 33.9073 -6.8086 -0.0211028 -0.0698835 -0.009298 
497 2 12.5209 33.6322 -11.3899 -0.0141018 0.0183515 0.0411961 
284 2 27.8091 17.2306 23.4125 0.0409243 0.025617 -0.102993 
573 2 13.8181 29.8433 35.619 0.0430119 -0.00735883 -0.0241867 
432 2 28.0841 35.1578 16.8862 0.0966196 0.014095 0.0259772 
209 2 19.6243 17.5236 24.3738 0.0431342 0.0291305 0.0127009 
186 1 18.1831 22.8709 23.3334 -0.0207498 0.0132767 0.0147177 
203 1 16.7227 22.9481 22.5922 0.0181608 -0.0237819 -0.000893644 
202 1 14.8346 21.3815 23.7236 -0.0150919 -0.0253815 0.0330801 
192 1 15.392 22.3856 23.0191 0.000598049 0.00822642 0.0119852 
212 2 15.0277 22.813 22.0371 -0.0544137 -0.0211516 0.0144545 
206 2 21.6276 18.0754 21.9899 -0.0400499 -0.0674699 0.0556571 
183 1 19.2617 20.7201 23.6426 -0.0240344 -0.00668267 0.0193457 
184 1 19.0461 22.9874 22.4412 0.0122562 -0.0134967 0.012925 
194 1 20.8264 18.6125 22.696 0.0170864 0.0186679 0.0174312 
181 1 20.3048 20.9558 22.6728 -0.00464776 0.00286664 0.0148279 
205 2 23.166 20.514 21.0009 -0.0350627 -0.0407789 -0.0911956 
182 1 20.2739 22.3698 22.3958 -0.0291544 -0.00764704 -0.0173449 
187 1 21.3551 19.9501 22.3238 -0.010025 0.0176808 -0.00712812 
188 1 21.0507 23.0875 21.4462 0.0409294 -0.00258054 -0.00487018 
195 1 22.1038 22.061 21.0982 -0.000198079 0.0171914 0.00511386 
193 1 22.2832 20.7505 21.5178 -0.00764861 -0.00494675 -0.00689503 
207 2 22.843 22.6173 20.4448 -0.0389276 0.0728325 0.0263368 
196 1 20.4783 23.5966 20.1123 -0.0356188 -0.00221972 0.0191193 
208 2 21.3606 23.3676 19.3784 0.0512276 -0.0051798 -0.0209729 
197 1 19.844 18.3664 23.7436 0.0098007 -0.0317034 0.00473446 
200 1 17.01 23.7853 21.3737 0.01435 -0.00428509 0.00190593 
215 2 16.5543 24.4435 20.8682 0.0454068 -0.0850911 0.10963 
199 1 19.1368 23.8859 20.0843 0.0327814 -0.00741884 -0.00857935 
190 1 18.413 23.8557 21.4598 -0.0139989 -0.00220755 -0.00481531 
211 2 18.9535 23.675 19.0021 0.0296397 0.0334653 0.0269677 
191 1 19.123 21.8715 25.7205 -0.000345559 -0.00338607 -0.0170739 
204 1 14.2404 20.369 24.3834 0.00384006 -0.000689952 -0.0137757 
133 2 20.3399 18.9693 26.1842 0.0883031 0.0305675 0.00833037 
201 1 19.5649 20.8362 26.5897 0.0165331 0.0306009 -0.015774 
213 2 19.0969 22.8693 26.3477 0.0413759 -0.0742092 0.0137527 
214 2 20.2847 20.7281 27.4632 0.0331574 0.112457 0.0784799 
198 1 19.5257 19.581 26.0107 0.00653206 -0.0248601 0.00254683 
185 1 18.5735 21.8877 24.4085 0.028868 0.0210934 -0.0191999 
189 1 19.2976 19.509 24.5752 0.00611081 0.0114703 -0.00214158 
210 2 27.7223 16.5932 22.8869 -0.0276098 0.0698262 -0.14947 
551 1 12.6913 30.0013 35.5198 0.0249367 0.0164642 -0.014491 
32 2 55.9584 -10.9301 -5.06309 -0.0715275 -0.107913 0.0957156 
394 2 48.3669 0.432294 6.87591 -0.0248822 0.040421 -0.0952887 
31 2 58.755 -10.1162 -5.6471 0.0129825 -0.0147636 0.0299475 
19 1 58.5178 -11.1588 -5.51575 0.0342766 0.0271332 0.0233794 
422 2 46.528 -3.47384 -5.62697 0.0551275 0.0126386 -0.0287623 
410 1 46.0056 -1.65489 -4.52213 -0.00475997 0.0259047 -0.00587939 
14 1 46.5204 -2.43138 -5.08111 0.00971807 0.0136788 0.00103802 
29 2 46.7646 0.392268 -3.42656 0.027064 0.0446799 -0.0806538 
413 1 46.0304 -0.467479 -3.51392 -0.00557973 -0.0133242 -0.00603906 
418 1 39.8256 4.22036 -1.94552 -0.00698372 -0.010967 0.00675956 
408 1 39.5829 3.97647 -3.24645 -0.00336344 0.0180483 0.00609343 
430 2 39.0057 2.58052 -4.51686 -0.0160165 0.028619 -0.0030254 
420 1 39.5455 3.49271 -4.60459 -0.0107372 0.0196807 0.00813076 
136 2 39.6497 4.20724 -5.40762 -0.0448706 -0.0199283 0.00210767 
412 1 42.8644 5.25203 -3.68775 0.0113643 -0.00405016 0.0122063 
424 2 42.7887 5.59345 -4.66949 0.0495075 -0.124586 5.533e-05 
427 2 41.5305 2.55572 -4.53311 -0.000579658 0.0399015 -0.0164763 
403 1 44.6982 0.282801 -3.4028 0.0155764 0.0153129 -0.0253279 
423 2 41.4704 0.950264 -2.96177 0.0108575 0.0175055 0.025187 
409 1 42.41 1.58351 -3.07447 -0.00143403 -0.00861521 0.00222289 
425 2 44.6221 2.21746 -1.06058 0.00235242 -0.0352791 0.00857303 
397 1 43.6698 0.919635 -2.73584 0.0243084 -0.00821509 0.00811752 
17 1 44.1802 2.17468 -2.1263 0.0289314 0.02253 0.0167962 
415 1 43.8181 4.89104 -1.64335 -0.0148028 -0.0173061 -0.0259243 
406 1 43.8444 5.78556 -2.60572 -0.0115607 -0.000753118 -0.0154618 
398 1 43.5227 3.5143 -2.08447 0.0116939 -0.00647966 -0.00123257 
404 1 42.5922 3.92537 -3.29499 0.0259828 -0.0171831 -0.00448043 
411 1 42.4114 2.72071 -4.05367 0.0133149 0.0138158 -0.0259822 
405 1 39.815 5.23639 -1.36678 -0.0201175 -0.0261118 -0.0179067 
414 1 39.4805 5.93153 -0.14111 0.0298138 -0.0276105 0.0101676 
416 1 44.061 7.33945 -2.8378 0.0178519 0.00666703 -0.00746812 
431 2 45.7923 6.50386 -3.08978 -0.00293395 0.101468 -0.0457495 
419 1 45.2158 7.49863 -3.70202 0.00831204 0.0306948 0.0285458 
428 2 45.3497 8.5637 -4.12283 -0.062581 -0.0699622 -0.0529507 
400 1 44.0554 5.00074 -0.128685 -0.0176502 -0.0172477 -0.0234552 
426 2 44.2937 3.9146 0.288142 -0.006728 -0.122824 0.106195 
399 1 41.1262 7.49951 1.10015 0.0195903 0.0119241 0.00726962 
250 2 39.6644 8.93838 1.46354 0.0148939 0.015566 0.0318283 
417 1 38.9389 7.01986 0.669034 -0.0160656 0.0280166 -0.00101075 
429 2 37.7705 7.48679 0.760674 0.00243378 0.0448672 -0.0579155 
407 1 39.9739 7.90816 1.16811 -0.00277121 -0.00863593 0.00129237 
401 1 42.0205 6.71216 0.874793 0.0129647 -0.00666098 -0.0270135 
402 1 43.1177 5.84248 0.450366 0.0137393 0.0146579 -0.00117609 
144 2 48.3626 0.387346 7.78105 0.0749829 0.108134 0.0906951 
20 1 55.947 -11.5508 -5.97181 0.000343317 0.00143747 0.0151307 
314 2 36.3265 3.39161 -5.01866 0.0392502 0.0800718 0.017905 
534 2 39.889 -2.07651 17.3233 -0.0691576 -0.0133019 -0.0569516 
526 1 36.5706 -2.42939 17.0128 -0.0173339 -0.0148711 0.0062276 
515 1 37.6749 -2.49989 18.1606 0.0238507 -0.00901441 0.00137548 
525 1 39.3057 -2.42149 18.2017 -0.00701524 0.0112769 -0.0103235 
538 2 36.3815 -1.65835 16.189 0.0170305 0.0351464 0.0255116 
533 2 41.7638 -3.50772 20.1384 -0.00369774 -0.00615412 -0.0515155 
518 1 39.8191 -3.60346 22.9946 -0.018287 0.0348426 0.0338746 
530 2 39.389 -4.56946 23.087 -0.0207433 0.0967837 -0.00355365 
507 1 38.6423 -2.07574 20.3984 0.00781249 0.00730539 -0.00445443 
521 1 40.4255 -3.19339 21.7016 0.000664239 0.00616063 -0.0121393 
522 1 39.7768 -2.57962 19.6899 0.00756458 0.0229359 -0.00368011 
513 1 40.9816 -2.85438 20.4411 0.019639 -0.00802536 0.0166583 
511 1 38.827 -2.40814 23.1619 -0.0107673 0.0331454 0.00356665 
505 1 38.304 -1.95381 21.7613 -0.00545911 0.00561015 0.0172607 
509 1 37.4282 -2.35422 19.627 0.00216755 -0.0126324 0.00684484 
506 1 37.0077 -1.41975 22.1349 0.0240788 -0.0147782 -0.00333171 
512 1 37.2652 -0.249284 23.2553 0.0121843 -0.0166955 0.00723061 
105 2 59.6143 5.15996 32.6325 0.0493285 0.0605601 -0.0984306 
519 1 38.5696 -0.421185 23.9942 0.0205327 0.00263764 -0.00283326 
517 1 38.7426 -1.81341 24.4408 0.0200887 0.00900223 -0.000951774 
529 2 39.2958 -2.40588 25.226 -0.0115978 0.0588514 -0.0160537 
531 2 39.0693 0.260682 24.5299 -0.0447056 -0.0422545 -0.000770328 
466 2 58.8546 5.18933 32.2014 0.0112915 -0.00768613 0.0278631 
510 1 36.1064 -1.94307 19.972 -0.0151652 -0.00391074 -0.00147475 
535 2 35.8662 1.11534 24.2344 -0.0390201 0.0526019 -0.0235907 
34 2 54.3358 31.2066 -5.77399 -0.0250332 0.0607631 -0.0361142 
22 1 54.8566 31.7198 -6.45695 0.00688938 -0.00843871 0.0179903 
36 2 53.1029 33.1439 -6.82615 -0.0204995 0.0196368 -0.0392967 
24 1 54.2697 33.0992 -6.71607 -0.0328754 0.00954419 -0.00865212 
12 1 55.3489 33.8576 -6.42021 -0.0147095 0.0193233 0.0054988 
35 2 53.8351 35.6801 -6.24088 0.0840399 0.0704795 -0.00752217 
6 1 56.8934 33.4396 -6.65259 -0.0128818 0.0196077 0.00609019 
23 1 55.0041 35.3087 -6.2685 -0.00858036 -0.0145123 0.00236525 
1 1 59.6214 34.6671 -4.55542 -0.000617304 0.0355414 -0.00687207 
10 1 57.2993 35.9626 -5.9763 0.0252037 0.00363814 -0.00614888 
4 1 57.5984 34.5167 -6.06778 -0.0348512 0.0196081 -0.00698602 
11 1 56.1859 31.3556 -6.87038 -0.0208001 0.00346985 0.0268407 
30 2 55.5066 29.3353 -5.75618 -0.0718605 0.0564472 -0.0511839 
21 1 56.3246 30.0527 -6.25263 0.0102541 -0.00683146 -0.01236 
540 2 45.3581 35.5695 1.5561 0.0542418 -0.0218615 0.0560755 
537 2 45.9021 35.8403 1.06569 0.0530418 0.0472029 0.00560486 
46 1 49.078 28.0566 11.8819 -0.0202208 -0.00197598 0.0192032 
2 1 58.7894 33.8853 -5.35125 0.0197985 -0.0213496 0.0172697 
18 1 57.543 30.0654 -5.4561 0.00332779 0.00624699 -0.00765113 
5 1 57.3789 32.1123 -6.54663 -0.00558227 0.00839385 -0.00623336 
3 1 58.472 32.2732 -5.52332 -0.000625536 -0.0117257 0.01057 
9 1 58.4195 31.1019 -4.88463 0.0182138 -0.0165293 -0.00666067 
72 2 51.5565 26.3835 10.242 0.0201679 0.0114781 0.0262462 
62 2 45.8912 21.9079 11.8453 -0.0819212 0.0572975 0.0245246 
45 1 46.0747 22.8136 11.3301 -0.00479298 0.0025839 -0.0127505 
53 1 44.9694 22.9464 10.4252 0.00720936 -0.00686312 -0.00322688 
26 2 59.2968 30.3066 -4.20483 0.0213997 0.0385391 -0.0364527 
65 2 44.0454 24.1487 9.13792 -0.000837342 0.0621075 -0.0718378 
50 1 44.9046 24.2485 9.57385 0.00772118 -0.021494 0.0273973 
43 1 45.6477 25.3819 9.82834 -0.0280446 0.00786989 0.00455227 
49 1 45.1547 26.9834 9.69129 0.00825276 -0.010983 -0.0303372 
61 2 44.1445 27.5971 9.96268 -0.069141 -0.0549685 0.0746361 
37 1 46.5374 24.9956 10.8947 -0.00283524 -0.0009385 0.000583623 
44 1 46.1206 27.482 10.8131 0.0133727 -0.0105567 -0.00473682 
39 1 47.0378 23.8055 11.4358 0.0160277 0.0161355 0.0184276 
38 1 47.071 26.4799 11.0111 0.00528597 0.0118945 0.0117045 
51 1 46.4758 28.9594 11.1125 -0.0215806 -0.00433982 0.0125707 
63 2 47.4025 29.5967 10.8935 0.0528626 -0.0626229 -0.0210211 
48 1 50.3554 25.5669 11.5917 -0.00924729 0.0123622 -0.00926094 
60 1 51.2505 24.3236 11.5482 -0.000593452 -0.0320492 0.0237516 
40 1 48.3271 26.7493 11.8266 0.0107116 0.0101654 0.0424362 
56 1 50.6858 26.773 10.8185 0.0316081 0.0155105 0.00953335 
59 1 49.9564 28.0617 10.7197 -0.000576375 -0.00865648 -0.00588893 
68 2 50.1402 29.1159 10.0749 -0.0195429 -0.0424866 -0.0648386 
41 1 48.3698 24.1581 11.898 -0.00479521 0.00774406 0.0206811 
16 1 59.5074 36.0086 -4.96519 -0.0100841 0.00597543 0.000532914 
70 2 52.3315 24.3553 11.2443 0.046902 0.0491913 -0.0342019 
67 2 48.8916 29.8669 12.8601 -0.0487471 0.0364188 -0.0388149 
47 1 47.9725 20.7672 12.4541 -0.0089136 -0.00206594 0.0101375 
54 1 50.828 23.2815 12.3499 0.00331409 -0.0227339 -0.0206197 
69 2 51.3222 22.2958 12.6358 -0.0278565 0.0760394 -0.0595829 
57 1 48.8598 21.7976 12.469 0.0129078 0.0140964 -0.00187272 
58 1 49.3593 23.3162 12.3706 -0.00656313 0.000864896 -0.0118638 
52 1 47.0384 28.8547 12.5107 0.000886232 0.0318484 -0.000722894 
55 1 48.4428 29.2689 12.2101 0.00539853 -0.0173451 -0.00704115 
66 2 47.0537 20.1782 12.5528 0.0541324 -0.072586 -0.0203878 
42 1 48.9589 25.4186 11.9712 -0.0179321 -0.0131898 -0.0307636 
28 2 60.3255 -11.6469 -4.48577 0.00218571 0.00955741 0.0765678 
486 1 76.1466 -8.49543 3.73981 0.00895053 -0.0152018 -0.0141664 
492 1 75.3278 -10.8842 5.06664 -0.028021 0.0228938 -0.022266 
489 1 75.6526 -9.78382 4.08535 0.00746471 0.00471426 0.00575451 
33 2 64.2406 -8.68904 6.59632 -0.0458285 0.0459489 0.0359748 
488 1 70.3042 -10.1205 8.59024 -0.0242892 0.00615734 0.0032397 
501 2 69.9566 -9.0206 8.52946 0.0542126 -0.0291106 -0.062214 
498 2 67.7517 -10.4827 8.38265 0.00952006 0.0353086 0.0638176 
491 1 71.6685 -10.3828 8.2926 -0.0136998 0.00616761 -0.00546479 
477 1 69.5217 -11.4514 8.91198 0.0115028 0.0121663 0.0133665 
502 2 75.4923 -7.91792 2.9989 -0.00109649 -0.166503 -0.0555978 
500 2 72.5069 -9.80999 8.87618 0.043574 0.0367326 -0.0492231 
480 1 74.9371 -11.5673 6.09955 0.0128547 0.00307264 0.00088512 
490 1 73.3808 -11.6528 6.74848 -0.0256999 -0.00776561 0.0261188 
474 1 72.1702 -11.6116 7.61026 -0.0166633 -0.0206732 -0.0103223 
71 2 83.4167 4.64485 -10.0552 0.00596689 -0.085638 -0.00191768 
391 2 83.1526 -10.9 10.0389 -0.0301133 0.0503995 0.0267341 
504 2 82.7267 4.52128 -9.4753 -0.0584711 0.054757 -0.0434598 
287 2 64.3926 -9.12122 6.33364 0.0152034 -0.112408 -0.0299929 
485 1 68.0328 -11.4523 8.8613 0.0123951 -0.0125235 -0.00122798 
27 2 63.8689 -11.9003 -4.28391 -0.00399249 -0.0542191 0.0201082 
392 2 80.4366 -11.9762 11.0244 -0.0336037 0.00414653 0.0407446 
137 2 81.8031 -2.48845 17.022 -0.106109 -0.0116291 0.0895504 
134 2 82.5539 -1.80463 15.1194 -0.0627356 -0.0385238 0.00393947 
99 2 80.2207 -9.54637 23.162 0.0508292 -0.0395968 0.0988126 
138 2 82.234 -2.26444 19.7245 0.0333684 -0.00602893 0.0704205 
85 1 80.1169 -8.48023 23.2675 0.0321267 -0.00638047 -0.0182007 
100 2 79.8382 -8.72038 26.4966 -0.0653931 -0.0145364 -0.0305367 
80 1 79.6575 -8.01604 25.8634 -0.0308184 0.00198074 0.00616374 
87 1 79.6114 -7.93255 24.4915 -0.0112974 -0.000331689 -0.0342977 
125 1 82.9533 -2.32544 17.1411 0.0076373 -0.0118266 0.0192044 
126 1 83.3728 -2.50019 19.4368 -0.0199988 -0.00356266 0.00160133 
122 1 83.3921 -1.62194 16.0099 -0.0150073 0.0193111 -0.00623384 
570 2 83.3443 0.488051 31.1455 -0.133476 -0.0693522 -0.0298114 
141 2 83.9746 -3.85144 20.5473 0.039075 0.117717 0.00426665 
7 1 61.1183 34.3432 -3.82762 -0.00450631 -0.00216549 0.0172358 
25 2 61.9688 33.2677 -2.66388 -0.098653 -0.11334 0.0161745 
13 1 62.1403 34.0989 -3.36752 -0.0034987 0.0197225 0.014625 
370 1 81.7718 34.7842 10.28 0.00395415 -0.0195795 0.00203633 
15 1 63.4403 34.9248 -4.1356 -0.0195493 -0.00989646 0.00315521 