ITEM: TIMESTEP
560000
ITEM: NUMBER OF ATOMS
576
ITEM: BOX BOUNDS pp pp pp
-1.2000000000000000e+01 8.4000000000000000e+01
-1.2000000000000000e+01 3.6000000000000000e+01
-1.2000000000000000e+01 3.6000000000000000e+01
ITEM: ATOMS id type x y z vx vy vz 
539 2 -7.04498 9.07967 -0.768601 0.045141 0.0279682 0.0367575 
511 1 -3.19201 -0.0814143 6.33416 0.0049456 0.00500199 -0.00420586 
530 2 -3.9256 0.780691 4.26334 -0.00280408 -0.000696214 -0.00732189 
529 2 -4.45085 -1.82346 6.32411 0.0503133 0.0974962 0.0437951 
518 1 -3.06539 0.445642 4.84867 -0.00747534 -0.000509458 0.0108919 
521 1 -1.87972 0.789122 4.14548 -0.000106201 -0.00119452 -0.000337569 
533 2 -1.97724 0.392063 3.1012 0.0129903 -0.00810668 -0.032899 
507 1 -0.937023 0.866063 6.27851 -0.0107484 0.0045782 0.0119088 
513 1 -0.807305 0.254353 5.02079 0.00238876 -0.0024325 0.0172128 
522 1 0.715293 0.340563 4.82955 3.9449e-05 0.0271227 -0.0136238 
525 1 1.95927 0.784498 5.41686 -0.00260382 0.00154131 0.0152527 
534 2 2.79886 0.747727 4.81244 0.0405132 0.000107454 -0.0110335 
515 1 1.35985 1.94826 6.21493 -0.00307672 -0.00940869 -0.00256193 
517 1 -3.8097 -1.35808 6.80659 0.02068 -0.00386845 0.0269954 
531 2 -4.37032 -1.99635 9.12974 0.0864798 0.0513987 0.110497 
519 1 -3.7327 -1.35696 8.10825 -0.00750175 -0.00243267 0.0168797 
532 2 -3.42636 -0.862556 10.4964 -0.00792611 0.000711974 -0.0467376 
512 1 -2.87596 -0.497312 8.88453 0.0206068 -0.0083541 -0.00518012 
520 1 -2.70125 -0.0496935 10.1907 -0.0015543 0.0305461 0.00699262 
250 2 -4.08254 11.2809 10.9033 0.0322217 -0.00606892 -0.0117675 
523 1 -1.89763 0.930099 10.8327 0.000333881 -0.00366585 -0.00123063 
505 1 -2.19881 0.648146 6.89356 0.0101861 0.000514882 0.00609793 
506 1 -1.91809 0.449372 8.32128 -0.00527171 0.0272447 0.0084926 
514 1 -0.843811 1.71983 10.2142 0.0172446 0.019644 0.00178596 
524 1 0.175802 2.55637 10.307 0.0125802 -0.00102027 -0.0153774 
508 1 -0.841504 1.29127 8.76102 0.0204165 -0.00447269 -0.00769118 
510 1 -0.148357 2.16558 7.89004 -0.0150268 -0.00212709 -0.00346046 
509 1 -0.120058 1.743 6.46257 0.00433483 -0.00300991 -0.000938465 
527 1 1.1155 3.51235 9.85116 -0.00674339 0.013985 0.0451384 
526 1 1.5275 3.3409 5.95658 0.00641841 -0.0308204 -0.0116277 
516 1 0.916566 3.38057 8.35755 -0.004661 0.0106847 0.00482868 
536 2 1.68526 4.33695 10.2913 0.0769292 -0.0108385 -0.000643257 
538 2 2.2105 3.59786 5.16357 -0.0774386 -0.0809564 0.0711104 
528 1 1.48543 4.14898 7.29423 -0.00836268 0.000539876 -0.0158567 
179 2 -7.87005 9.16691 -1.08657 0.0415127 0.0624191 0.0616774 
535 2 -2.41004 0.88774 11.8211 0.0435689 -0.0322053 0.0302762 
495 2 -7.4186 -10.8969 30.2692 -0.063821 -0.0248814 0.0131339 
87 1 3.93914 2.19794 16.0611 -0.0231534 -0.000297055 -0.0304556 
85 1 4.36181 3.25385 15.2644 0.0287878 -0.0125254 -0.00365813 
80 1 3.77546 1.6797 17.3054 -0.0144635 -0.0214032 -0.0434992 
100 2 4.11033 0.73997 17.8647 0.00527056 0.0308183 0.0512674 
99 2 3.60323 3.71752 14.4945 0.0444217 0.103001 0.0739014 
389 2 -4.99291 -10.0675 29.6324 0.0167911 -0.0326736 0.0652343 
377 1 -5.01674 -10.8639 28.6884 -0.0266054 0.00297817 -0.0190285 
386 2 -3.81808 -9.91675 26.9429 0.0322746 -0.0360586 0.00659555 
388 2 -1.96686 -11.4335 25.393 0.00199441 -0.0696735 -0.0163659 
394 2 10.8952 10.6455 14.8609 -0.00442701 0.000943992 -0.0958025 
171 2 -7.35311 10.9084 32.557 0.0145804 -0.0601126 0.153811 
374 1 -4.40393 -10.6337 27.3998 -0.000797583 0.0202733 0.00415126 
161 1 -5.67826 11.5725 28.6213 -0.0189251 0.037431 -0.0213056 
465 2 3.72527 -11.6973 30.127 0.0668498 0.00870098 -0.0121031 
151 1 -6.38261 10.2007 30.7417 0.0348943 0.00853818 -0.0238653 
167 1 -4.57821 4.51776 27.778 0.00183996 0.0093888 0.00660884 
180 2 -2.47075 4.93778 26.4143 0.027762 0.0308204 -0.0375128 
164 1 -5.26844 4.56066 29.0538 0.0180654 0.0188187 0.00388909 
156 1 -3.78018 5.79649 27.524 0.0150037 -0.00129275 -0.00925501 
145 1 -5.42662 9.18589 29.8239 -0.0127781 0.00420987 0.00297542 
147 1 -4.77326 9.30072 28.5588 0.0203965 -0.00191581 -0.0227079 
153 1 -5.12957 10.5688 27.9117 0.0199331 -0.0068931 0.0128596 
178 2 -1.40925 7.61298 25.5621 -0.018867 -0.156608 -0.0690833 
165 1 -3.46251 9.71188 26.3622 -0.00299863 0.00782043 0.00869381 
155 1 -3.16603 8.30637 26.8927 0.0181138 -0.0030163 8.8847e-05 
166 1 -2.27126 7.26856 26.2072 -0.00128509 0.00475843 0.0208191 
162 1 -4.68676 10.4196 26.3837 0.0178118 -0.00432373 0.0309827 
174 2 -2.68167 10.3142 25.8151 0.0432424 -0.0800903 -0.0149021 
149 1 -4.03104 8.19443 27.9059 0.0112622 -0.0199311 0.013501 
168 1 -2.52986 5.89412 26.7917 -0.0165336 0.0141496 -0.000851639 
150 1 -4.20773 6.90259 28.4136 -0.0167795 0.00809453 0.03306 
148 1 -4.99319 6.73892 29.6787 -0.00212449 -0.0326325 -0.00298513 
146 1 -5.37516 7.98837 30.5045 -0.00589777 -0.00580403 0.00388938 
175 2 -6.9893 4.22245 31.3326 0.10258 0.000400796 -0.0126409 
163 1 -6.55569 5.24412 31.2899 -0.000521774 -0.00066681 0.0106234 
154 1 -5.61666 5.54949 30.1285 0.0157558 -0.0124999 -0.0137323 
160 1 -6.77095 6.45207 32.2156 -0.0201151 -0.00235714 -0.00482132 
157 1 -6.57753 10.198 32.1688 0.0302594 -0.00998256 -0.0224641 
172 2 -7.29202 6.20407 33.1099 -0.0379758 0.0118916 -0.0321638 
152 1 -6.15181 7.68807 31.8129 -0.0121619 -0.00399341 -0.0122161 
159 1 -6.44642 8.80195 32.6707 -0.0109088 -0.0150073 0.0097948 
169 2 -6.24269 8.5432 33.703 0.0607428 -0.023047 -0.0885126 
158 1 -6.11525 11.3107 29.955 -0.00177731 -0.0287592 0.00511439 
352 2 -1.88392 -10.4079 19.911 -0.0601909 0.021772 0.0616769 
367 1 -3.88551 -11.736 26.8389 -0.00173262 -0.0253562 0.0115277 
144 2 10.928 10.354 14.9269 -0.0893038 0.0140617 -0.0842554 
369 1 -5.89056 -11.991 29.1374 0.00255181 -0.0179248 0.00174377 
439 1 8.49151 32.6534 30.0656 0.01108 0.00312437 -0.00755735 
385 2 -3.64064 35.1576 25.3149 0.0354535 -0.0632152 -0.0185342 
173 2 -5.73192 12.6578 28.3302 0.0232109 -0.0331765 -0.0496026 
461 2 7.43613 34.5335 27.4359 0.00947871 0.0346286 0.0220644 
396 2 -6.57302 30.8045 31.2656 -0.0448832 0.0952947 -0.00588686 
395 2 -5.07614 28.9074 29.0417 0.0890767 0.027238 0.0216126 
392 2 -3.40694 28.6525 27.4771 0.0208345 -0.0567398 -0.117434 
383 1 -5.0959 29.8687 28.4228 -0.023901 -0.0060239 -0.0143292 
382 1 -7.22582 32.2303 30.1582 -0.0106885 -0.008658 0.0143568 
371 1 -6.69115 33.5871 29.9084 -0.00116231 -0.0172274 -0.000373413 
384 1 -6.57539 31.0258 30.1504 -0.021853 -0.00373862 -0.00611914 
387 2 -0.759673 34.9466 26.9537 0.086553 -0.00291677 0.0970162 
372 1 -5.41269 31.1041 29.2114 0.0296624 0.0060309 0.0154642 
370 1 -3.53162 31.1071 27.1497 -0.00363468 0.000525354 0.0211657 
366 1 -5.12394 32.4021 28.535 0.0398853 -0.0150112 0.00205831 
365 1 -5.4614 33.5184 29.2791 0.0173651 0.0304448 -0.0117258 
364 1 -4.11798 32.3664 27.7817 -0.0275868 0.000399881 0.0160762 
362 1 -3.66963 33.596 27.2018 -0.0117479 -0.00294205 -0.00991832 
361 1 -4.41126 34.8509 27.4531 0.00589578 -0.0096282 -0.0145113 
363 1 -5.10071 34.8542 28.6705 -0.017669 0.023723 0.0035255 
379 1 -2.16336 31.2891 26.6109 -0.00179016 -0.0228368 -0.0289578 
376 1 -1.92956 32.5914 26.7299 -0.0160486 -0.00645231 0.010376 
380 1 -3.76715 29.8232 27.7387 -0.0261648 0.00177085 -0.00361247 
368 1 -2.31754 33.7381 26.9306 -0.00276231 0.00762428 -0.00120426 
391 2 -1.20645 30.8179 26.308 0.0698599 -0.0366083 0.0426532 
375 1 -1.63996 34.9128 26.3196 0.0110296 9.84401e-05 0.0122942 
434 1 6.56731 31.3504 30.9583 -0.00422545 0.0183147 0.00200008 
453 1 4.49917 35.7422 29.456 -0.0101723 0.00417771 0.015755 
443 1 3.92624 34.5314 30.3752 0.0179373 -0.0326378 -0.0044321 
437 1 4.69117 33.625 30.9222 -0.0189499 -0.00353449 0.00566724 
450 1 5.0973 35.1589 28.4349 0.00965007 -0.000748909 -0.00982004 
458 2 9.52288 34.1722 28.7036 -0.112861 -0.0139723 -0.0257096 
446 1 8.62789 33.7494 29.1069 0.00769843 -0.0251676 -0.0146569 
441 1 6.12083 34.1141 29.0693 -0.0161397 -0.000834236 -0.00343806 
449 1 7.403 33.865 28.326 0.0169216 -0.00789388 -0.000800957 
433 1 7.05153 32.6006 30.2713 0.0463721 -0.00320095 -0.00808584 
170 2 -6.51314 12.2213 30.1697 -0.0431751 -0.147179 0.0125503 
463 2 5.88341 28.4689 32.8019 -0.0134354 -0.0414197 0.0525682 
467 2 2.93775 28.6297 31.994 -0.100832 -0.0373858 0.05017 
451 1 6.02081 29.5058 32.5615 0.0165936 0.0154312 0.00511407 
452 1 3.52773 29.5152 31.6769 -0.0128869 0.00741768 0.0211264 
460 2 8.36268 29.2318 32.9901 0.00869126 -0.0643209 0.00561286 
448 1 7.45837 29.7136 32.4336 -0.00804621 -0.00710616 -0.000254664 
390 2 -8.08999 31.8911 30.8782 -0.00451333 -0.0210303 0.0962337 
378 1 -7.06803 36.0975 29.8937 0.00648414 0.0445807 -0.0230869 
393 2 -8.05975 34.5241 31.3253 -0.0189721 0.0411074 0.00893442 
381 1 -7.39018 34.7333 30.3729 -0.0079389 0.00793089 0.0270872 
466 2 1.62263 34.6325 29.6859 0.0107709 0.038244 0.0858503 
468 2 1.68388 32.3092 30.7179 0.0435632 -0.0951168 -0.0510813 
442 1 4.9024 30.1922 32.02 0.027751 -0.00898472 -0.00666966 
456 1 2.65845 32.6243 30.4755 -0.0044601 -0.025376 -0.0107673 
455 1 2.78049 30.5369 31.1309 0.0206032 0.00326889 -0.0311695 
444 1 3.54757 31.6628 30.7531 -0.00784406 0.00174128 0.0231818 
436 1 5.53803 31.3358 31.8162 0.0233549 0.0189225 0.00774729 
438 1 4.64303 32.3769 31.5467 -0.00204696 -0.008841 -0.0225971 
435 1 6.04405 33.4808 30.2229 -0.0189331 0.0100299 0.00982075 
454 1 2.58475 34.0101 30.1792 0.00236147 0.00542255 -0.0138956 
440 1 7.65235 30.2442 31.0889 -0.0170569 0.00169169 0.0299383 
447 1 9.05426 30.2581 30.7748 -0.00277473 -0.00263488 -0.00923804 
459 2 9.84038 29.3837 31.0563 -0.0986208 0.0339517 -0.0248931 
457 2 10.6766 31.7835 30.5397 -0.0280079 0.00462414 0.0399559 
445 1 9.44733 31.6057 30.3795 -0.00272932 -0.00226378 -0.0169367 
373 1 -2.86005 35.7632 25.7644 0.024551 0.00754861 -0.0095202 
462 2 5.60286 35.864 27.6681 0.0511636 -0.0197831 0.00578037 
105 2 17.3935 7.9958 4.96011 -0.00979767 0.0210729 -0.0245006 
464 2 16.8954 9.11508 6.17495 -0.0280017 0.000402744 0.0352613 
143 2 14.8898 19.9313 -10.6519 0.0307858 -0.00288521 0.0389224 
128 1 14.8005 19.972 -11.7125 0.00467146 0.0143472 -0.00747201 
496 2 35.7867 35.018 -8.37906 -0.00732146 0.107316 -0.0353949 
15 1 33.4553 19.0792 23.9005 -0.00507712 0.00275882 0.0215423 
27 2 33.1195 18.1049 23.3536 0.0491041 0.0504418 0.0220387 
31 2 34.421 17.2229 20.931 0.0315307 0.0445368 0.0199684 
8 1 34.5993 19.3482 23.1357 0.0292182 0.00868172 -0.0137261 
16 1 34.797 18.1718 20.722 0.0168246 -0.0107837 -0.00322356 
19 1 35.1059 19.2209 21.6353 0.00402446 0.0114055 0.00355007 
2 1 35.5335 20.1967 24.0143 0.0131744 -0.0188506 0.012091 
28 2 35.1086 18.3813 19.7184 -0.0196029 0.00234457 -0.0241061 
10 1 35.5747 20.5869 21.3302 0.0150981 0.0263919 0.0238286 
540 2 28.2346 30.9925 14.207 -0.023152 -0.0490338 0.0327442 
125 1 21.0154 24.9108 33.3048 0.012119 -0.0252463 0.0109636 
122 1 20.3761 26.2051 33.657 0.0117252 -0.016707 0.00950945 
13 1 33.7484 18.7342 25.2766 -0.0217578 0.0381205 -0.000914005 
25 2 33.5041 17.923 25.9155 0.0808861 0.0328518 0.0772614 
7 1 34.6269 19.6796 26.0842 -0.00402645 0.0033034 0.00866702 
137 2 21.9033 24.6256 32.7596 0.0644676 -0.0553153 0.0579881 
1 1 35.5056 20.4332 25.2402 0.0105397 0.00419124 -0.00944325 
138 2 21.5484 22.9215 31.6059 -0.119523 -0.000158434 -0.0109041 
120 1 16.7238 21.3103 34.6984 -0.00902521 -0.0217053 0.0074747 
114 1 16.8537 22.6329 34.0206 0.003283 0.00161785 0.00708568 
32 2 36.0233 20.8615 19.2544 0.00820923 -0.0832675 0.000882544 
131 1 15.8252 20.66 35.5213 0.00055116 0.0140899 -0.0107441 
140 2 14.1878 19.1235 36.0443 0.0868889 0.0647597 0.0805746 
26 2 34.9039 19.2571 27.2318 -0.0419132 -0.00799643 0.0657272 
132 1 17.6574 20.1099 34.1283 0.00870408 0.0182158 -0.00823213 
118 1 14.995 23.8117 35.5921 -0.0222732 -0.0310113 -0.00687257 
141 2 20.5253 20.456 31.3846 -0.0356244 -0.0383877 -0.0272189 
129 1 19.9825 21.5021 31.7117 0.00187517 -0.0078859 0.00622265 
126 1 20.5187 22.7049 32.1193 0.00541463 -0.0221045 0.017921 
130 1 18.2142 20.0882 32.9151 -0.0108567 0.00875956 0.0236347 
142 2 19.011 19.3704 32.4987 0.00932887 -0.0182268 0.0784057 
119 1 18.6459 21.4512 32.4063 -0.00783121 -0.0111857 0.0242934 
113 1 17.884 22.5162 33.0149 -0.031552 0.0164452 0.0159943 
127 1 14.4047 24.9512 36.1463 0.0121789 -0.0119654 0.0325009 
20 1 35.9746 21.3598 20.1646 0.0145525 0.0168274 -0.0124727 
110 1 16.8159 25.0428 34.5864 -0.00385534 -0.0135226 0.0107245 
136 2 13.7304 26.9287 35.3663 0.0155577 0.059737 0.0349825 
124 1 14.5913 26.264 35.6891 -0.00548493 -0.0340271 0.0276108 
112 1 16.1278 23.7008 34.6141 -0.00433608 0.010602 0.00520236 
116 1 16.0897 26.2418 34.9853 0.0132102 0.00757667 -0.01827 
123 1 16.6814 27.5461 35.0565 -0.0109694 -0.0144135 0.0215324 
109 1 17.9762 24.9428 33.8497 -0.000852434 0.0018629 0.00465221 
134 2 21.0726 26.4473 34.2424 0.0106367 0.115719 -0.0777926 
121 1 18.1293 27.3543 34.4865 -0.0186542 0.0178606 0.0144817 
117 1 20.2338 23.7423 33.0794 0.0060415 -0.00415083 0.016588 
115 1 18.798 26.2176 33.8753 0.000635967 0.0135375 -0.00782508 
133 2 18.5506 28.3807 34.55 -0.024918 0.0465717 0.0258108 
111 1 18.8438 23.7441 33.5559 0.0216808 -0.0271234 0.0211975 
537 2 28.5832 31.6889 13.9973 0.0713349 0.0742722 0.0284821 
139 2 14.5778 22.8136 35.6113 0.00235858 -0.0850628 -0.0244162 
177 2 13.2559 24.4834 35.9212 -0.0366283 0.0587377 0.0599347 
282 2 55.3758 4.25749 3.90839 0.0456502 -0.0247648 -0.0983602 
135 2 54.8615 4.349 3.31382 -0.0850898 0.0261558 0.0253565 
29 2 40.9904 6.76312 4.79204 -0.08884 -0.0106545 0.0488217 
17 1 39.7694 6.36785 4.74105 -0.011734 -0.0211838 -0.00489419 
14 1 38.8845 6.22918 5.29305 0.0285925 0.00191611 -0.0399035 
33 2 37.7344 6.53031 5.25857 0.0687369 -0.0280743 -0.12388 
283 2 47.8218 9.70899 10.3208 -0.0796639 -0.0631591 -0.0495263 
86 1 56.2147 -7.11349 24.8007 -0.00231151 0.0216629 0.019057 
98 2 55.1886 -6.99564 24.641 0.0525699 0.0236501 0.0313227 
570 2 48.401 -1.84924 22.8068 -0.0659861 0.018495 0.0721408 
551 1 50.7683 -2.80676 24.5852 0.0124557 -0.0139132 0.0122031 
573 2 48.8269 -3.93413 24.2771 0.00462066 0.0270185 0.00956588 
561 1 49.3232 -2.88965 24.0383 0.0179814 -0.0234998 -0.00366124 
558 1 48.6788 -1.55831 23.8285 -0.00412946 -0.0310231 -0.0104425 
566 2 48.1771 0.439375 21.8731 -0.157731 -0.0791272 -0.0898948 
176 2 58.6965 3.65137 18.7567 0.154986 0.00807007 -0.0460907 
549 1 49.3376 -0.303585 23.5235 -0.0103116 -0.00981457 0.00336677 
557 1 49.0068 0.52437 22.5052 -0.0209953 -0.0219555 0.0200582 
554 1 49.5356 1.7871 23.026 0.0269989 -0.0127824 -0.00502693 
89 1 56.9873 -8.1559 25.3885 -0.0275025 0.00292685 0.016633 
79 1 57.0964 -6.02888 24.8046 0.0319896 -0.000431668 -0.00567994 
101 2 56.1638 -8.83086 25.6278 -0.0149434 -0.0396706 -0.000240251 
81 1 58.2813 -8.19221 26.0877 -0.00990685 0.0175148 0.0137549 
90 1 59.1089 -9.33977 26.6475 -0.00919119 -0.0108919 -0.0138846 
102 2 59.1626 -10.5206 26.7184 0.0670562 0.0697208 -0.0354025 
574 2 51.474 -5.12707 25.2047 -0.0316309 -0.016868 0.00668281 
562 1 51.4357 -3.91392 25.2026 0.0101879 -0.00723134 0.0111517 
576 2 53.5521 -4.72807 26.2265 0.081783 -0.0562313 0.0198936 
421 2 53.4739 -4.13524 24.4338 -0.0301894 0.0605835 -0.0933724 
563 1 54.6072 -2.23595 26.2559 0.00330926 0.0318276 -0.0313758 
575 2 55.3606 -2.79694 26.5021 0.079629 -0.0144606 0.00968165 
564 1 52.9064 -4.20435 25.467 0.0291964 0.00871981 0.00410259 
546 1 52.5257 -1.57238 25.7425 0.00794544 0.00184152 -0.00435681 
552 1 53.3279 -2.59932 25.8573 -0.0380881 -0.000568298 0.00414395 
545 1 51.0899 -1.57204 25.3122 -0.00663644 0.0169706 -0.0179662 
544 1 52.9766 -0.0513552 25.4677 0.0305845 -0.0209774 0.0165356 
572 2 56.2353 -0.602368 26.2747 0.0321745 0.0033527 -0.00732871 
560 1 55.2378 -0.978363 26.2653 0.0230628 0.00140335 -0.0222074 
550 1 54.3071 0.0209529 25.5807 -0.0119092 -0.0118911 -0.00204977 
97 2 56.5065 -5.00671 25.432 -0.0578933 -0.0361533 0.0176951 
88 1 58.9844 -0.589077 27.9887 -0.00926551 -0.0201248 0.0102598 
75 1 58.665 -6.79421 26.0549 -0.0212232 0.0211126 -0.00135287 
74 1 58.1888 -4.20874 26.2366 -0.0137316 0.00349001 0.0262002 
73 1 58.1394 -5.5217 25.6756 -0.0130133 0.003126 0.0140549 
91 1 59.5872 -1.28715 27.4722 -0.0328405 0.00109374 -0.0187288 
548 1 51.979 2.07047 27.4517 0.0372113 0.0175258 -0.00498702 
565 2 51.2648 1.4587 29.1179 0.0230576 -0.120519 0.0584192 
555 1 52.7649 2.32067 26.2347 -0.0202393 -0.00999427 -0.00745247 
542 1 52.1435 1.08246 25.4073 -0.0156052 0.0139231 -0.0107367 
541 1 50.8575 1.05583 24.8536 0.0084165 0.0287005 0.00247403 
543 1 50.501 -0.437487 24.6933 -0.0087967 0.0191796 0.00878884 
547 1 49.6562 2.2701 24.4792 -0.00759517 -0.0270844 -0.00310573 
569 2 50.1863 2.8217 25.1685 -0.00586042 -0.047373 0.0242499 
553 1 52.1996 1.62312 28.5346 0.0161171 -0.00904397 0.011126 
567 2 53.1789 1.1404 28.9287 -0.0247427 -0.122914 0.0717982 
568 2 54.6048 3.34328 25.1105 0.0817061 0.018841 -0.0608267 
571 2 56.286 1.31168 26.0301 -0.050683 -0.016941 -0.012621 
559 1 55.0238 1.39589 25.7013 -0.00572099 0.000287199 -0.00254109 
556 1 54.1901 2.52943 25.8852 -0.0293592 0.00937286 -0.00387059 
355 2 57.3097 -3.48324 25.9326 0.00621173 0.0530186 0.0776032 
103 2 59.101 -0.0213572 28.9282 0.0791237 -0.0150835 0.0239394 
76 1 59.6592 -3.87788 26.9877 -0.0069231 0.0153185 -0.000364491 
77 1 59.9297 -6.36168 26.6969 0.00757589 0.0112184 -0.010862 
500 2 44.2409 25.1745 9.62689 0.0364254 -0.0805464 -0.0515188 
488 1 43.5932 24.2084 7.90845 -0.00283864 -0.00470106 -0.003884 
501 2 45.1782 25.8142 7.95718 0.0545183 0.0206973 -0.00231103 
491 1 44.4528 24.9908 8.54748 0.0111769 -0.0216893 -0.0173278 
503 2 40.1958 18.1174 4.18717 0.0759558 -0.013187 -0.0270115 
486 1 46.1799 18.3714 1.09443 -0.00323049 0.0120822 -0.00704457 
489 1 45.1121 18.263 1.8836 -0.00451867 -0.0132351 0.0105264 
502 2 43.4961 16.9557 2.18273 -0.0670929 -0.0544897 0.121777 
492 1 44.139 17.6339 2.458 -0.0118157 0.0483652 -0.0313282 
473 1 42.4109 19.8466 5.17247 -0.00851173 -0.00796633 0.00430936 
478 1 40.0589 18.592 5.22766 -0.00252711 -0.00820757 -0.00867692 
472 1 41.1473 19.1896 5.87813 -0.0142267 0.0154087 0.00415511 
480 1 43.2571 19.3728 4.13041 0.011846 0.010736 0.00827358 
490 1 43.6147 18.8121 3.15328 0.0112427 0.0061352 0.00379185 
487 1 38.7507 18.7726 5.55397 0.00788384 0.0117199 -0.0132515 
484 1 38.3104 19.4818 6.61259 0.0156871 -0.00413061 -0.0180458 
499 2 37.2938 19.3611 6.90712 0.0831654 -0.0241429 0.00228068 
483 1 39.043 20.4974 8.91733 -0.00261354 0.0312359 -0.00259434 
479 1 42.0188 21.0271 7.32846 0.00188176 -0.00653369 -0.00510217 
471 1 41.9919 22.133 8.53961 0.00827619 -0.0117624 0.00833999 
469 1 41.3815 21.4614 9.79524 0.00822322 0.00815104 -0.00644265 
481 1 39.9075 21.1287 9.86305 -0.00937199 0.00989312 0.0114899 
477 1 42.3921 23.4637 8.18197 0.00902029 -0.00942886 0.0297864 
470 1 40.8449 20.1145 6.98289 0.00320707 0.0209723 -0.0272076 
476 1 39.4486 19.8283 7.6307 -0.0109409 -0.0154618 -0.0227676 
475 1 40.5692 22.3757 10.7617 -0.0113408 0.00803645 -0.00924512 
493 2 38.0728 20.5399 9.34442 0.0160425 0.0254705 -0.0661576 
497 2 44.0061 20.5261 6.65147 0.050787 -0.0126194 0.0200669 
474 1 43.0138 20.5711 6.4693 0.00822658 -0.00182843 0.0156484 
108 2 40.5713 21.9088 11.8787 -0.00420038 -0.00020001 0.012365 
482 1 40.562 23.7421 10.1447 -0.00678887 -0.0384375 -0.00810792 
494 2 40.4326 24.4248 10.9918 0.0224485 -0.0714098 -0.0749119 
498 2 41.1806 25.2022 8.89899 -0.0533677 -0.030171 -0.0354599 
485 1 41.3819 24.1707 9.12111 -0.00247132 0.00127968 0.0170458 
61 2 59.7639 33.3503 -1.7014 -0.0689969 -0.0454142 -0.0135577 
69 2 59.531 27.4657 -5.60517 -0.0391348 0.00720571 0.0459232 
65 2 59.6144 30.6044 -4.75439 -0.0603095 -0.0755264 -0.00537008 
210 2 51.4142 15.6981 17.6704 -0.0994178 -0.0177989 -0.0584394 
341 1 39.8771 23.7282 15.3862 0.0114749 -0.00467125 -0.000663808 
338 1 40.7701 22.6898 15.976 -0.0133556 0.0103347 -0.00273137 
350 2 41.0162 21.776 15.1633 0.00907549 0.0356065 0.0835432 
353 2 39.5086 23.5489 14.5287 -0.00560788 0.097835 -0.0244031 
331 1 41.0144 22.9554 17.2282 -0.0199505 0.00140261 0.00678926 
333 1 40.0918 25.2009 15.8303 0.00225521 0.00319848 -0.017474 
342 1 39.2633 26.2644 15.0959 -0.00994563 0.000162327 -0.0102911 
354 2 39.258 26.4933 13.9075 -0.00548375 -0.018268 0.00674422 
345 1 38.92 27.481 15.5962 -0.00720113 -0.02862 -0.00725057 
216 2 38.8033 28.2637 14.6301 -0.0460494 -0.00828652 -0.0331298 
335 1 39.1095 27.7814 17.0902 -0.00745952 -0.0134511 0.0189415 
358 2 39.0216 29.9494 17.4183 0.105492 -0.0345932 0.00631997 
327 1 40.014 25.5804 17.1684 0.0122434 0.0395247 -0.00142561 
346 1 39.3028 28.9995 17.7861 -0.0191046 0.0095463 -0.00558633 
329 1 40.0977 26.8873 17.649 0.00614524 -0.00918407 0.0116133 
24 1 37.8206 24.2556 22.4818 -0.00719122 -0.0126774 -0.0600628 
332 1 41.1471 23.594 20.0607 0.0191268 0.0185701 0.00367989 
339 1 41.5265 22.1892 19.4794 0.00898159 -0.00109389 -0.0179503 
351 2 41.924 21.4921 20.1573 0.00523373 0.0394892 -0.0415322 
337 1 41.4384 21.8634 18.1813 -0.00117705 -0.0155169 0.00681846 
349 2 41.9513 20.8788 17.9475 -0.0649727 -0.0311472 -0.0880197 
340 1 41.0807 23.535 21.4987 0.0143119 0.00804498 -0.00949557 
22 1 37.885 24.5419 23.8811 -0.0191587 -0.0159212 0.024394 
36 2 38.0146 25.0509 21.7311 0.0131905 0.0696857 0.00771409 
12 1 37.0595 22.9415 22.0697 -0.00343254 0.0271784 0.0327848 
325 1 40.3407 24.1825 17.8716 0.0189065 0.0171974 0.00340692 
23 1 36.7907 22.467 20.6221 -0.000575204 0.0157215 0.031564 
35 2 37.1332 23.4994 20.2146 0.0180035 -0.0043255 -0.0131049 
30 2 36.7606 20.8333 27.672 -0.0184302 -0.0267439 -0.0465441 
34 2 37.9582 25.5454 24.3532 0.0273013 0.0178563 0.0297541 
326 1 40.2452 24.5114 19.2775 0.000151969 0.0113978 -0.0156526 
356 2 40.8041 27.3202 22.9212 0.0169753 0.0141626 0.0202306 
343 1 40.4895 24.8576 22.0571 -0.000314225 0.0102014 0.000110818 
328 1 40.6805 25.8122 19.7599 -0.0218534 -0.00275217 -0.0118746 
334 1 40.7769 25.9016 21.2808 0.00127594 0.0182393 -0.00606198 
330 1 40.2057 27.1054 19.1488 0.00201022 -0.00981141 -0.0146509 
336 1 40.4942 28.3471 19.722 0.00613267 -0.019733 -0.00855706 
347 1 40.6291 28.5614 21.1616 0.0123282 -0.0101458 0.0103306 
344 1 40.9207 27.3691 21.7828 0.0044585 0.00924945 -0.0207524 
359 2 40.8807 29.5163 21.4697 0.0716737 -0.00414075 0.0882061 
348 1 40.1788 29.4337 18.7965 -0.0221723 -0.00138797 0.0144886 
360 2 40.2914 30.528 19.1355 0.00447158 -0.0314123 -0.0352952 
5 1 37.2042 22.1479 24.518 0.0137482 0.0170101 -0.00429316 
11 1 37.9237 23.3991 24.7213 -0.00348853 0.00687429 -0.000117203 
18 1 38.59 22.3593 27.2095 0.00116965 0.0136941 -0.00532831 
21 1 38.4947 23.4375 26.2742 0.00912714 0.0123436 0.032058 
9 1 37.3675 21.4003 26.8289 -0.0148263 0.0141002 0.00320936 
3 1 36.6518 21.368 25.64 0.0139479 0.0171764 -0.00729917 
6 1 36.4649 22.097 23.1822 0.00777478 -0.00922589 -0.0110766 
4 1 35.9876 20.8861 22.6854 -0.00504505 -0.00230033 -0.0125774 
317 2 71.1434 6.21086 -12.0289 -0.056629 -0.00233085 -0.0438303 
422 2 70.3059 0.504045 8.0466 -0.0789367 0.0391468 -0.0404624 
306 1 73.3655 7.14457 -11.5147 -0.00766099 0.00301253 0.0149597 
309 1 74.4748 8.0319 -10.9536 0.0384571 0.00735866 0.00366427 
318 2 74.7368 7.72105 -10.0168 0.00901875 -0.0323492 -0.0947071 
299 1 74.848 8.92392 -11.9453 0.004362 -0.0154075 -0.016493 
408 1 71.6812 -7.46289 7.01722 -0.00908946 0.0101357 -0.0179993 
242 2 69.4544 -9.82723 -6.60619 -0.106968 0.0302599 0.0137559 
217 1 70.0757 -11.0544 -3.22015 0.0113375 -0.00132885 0.00934405 
220 1 70.9893 -11.3016 -1.02055 -0.013666 -0.00979268 -0.0323958 
223 1 70.4486 -10.6804 -4.66353 0.0104051 -5.6642e-05 0.0041824 
218 1 71.185 -11.2498 -2.32876 -0.000806614 0.0318029 -0.0138103 
230 1 69.3107 -10.3577 -5.51411 -0.00136549 -0.00261243 -0.027672 
233 1 67.9103 -10.8575 -5.29313 0.0104276 -0.0150499 -0.0131499 
245 2 67.482 -10.8474 -6.25492 0.0281777 -0.0157678 0.0836152 
219 1 68.7461 -11.8075 -3.26094 -0.0190584 0.00470733 0.0051405 
243 2 73.3377 -9.36863 -4.19775 -0.01066 0.0173294 0.0305336 
231 1 72.6164 -10.0772 -3.82252 -0.0117249 -0.00880864 -0.0307055 
224 1 72.4235 -10.4302 -2.65073 0.0188187 0.000993459 -0.00422848 
244 2 74.0962 -9.14557 -1.64034 0.0459238 0.0554135 -0.0501482 
229 1 71.6556 -10.2333 -4.95458 -0.00303288 0.012311 0.00852542 
232 1 73.4614 -10.0881 -1.6036 -0.0116271 -0.00600432 0.026154 
241 2 71.9289 -10.0572 -5.99282 -0.00608687 0.0885675 0.0226587 
235 1 73.3431 -10.4457 -0.233534 0.0155866 0.011811 -0.0168074 
236 1 70.4331 -11.6828 1.45207 -0.00449861 -0.002176 0.0187752 
428 2 70.1831 -7.71923 2.08522 -0.0182024 0.0334907 -0.0599371 
431 2 69.0508 -6.39088 2.89047 0.0429715 0.0198528 -0.0299043 
419 1 70.0262 -6.75144 2.32408 -0.000892921 -0.0072786 -0.0180278 
416 1 71.1046 -5.71511 2.50303 -0.00230922 0.00816178 -0.0310327 
239 1 71.5114 -11.2415 1.2932 0.00820129 0.000975874 -0.0119462 
402 1 70.7923 -6.09776 7.09991 -0.00965482 -0.0184103 0.0182065 
251 2 69.9637 -11.4934 2.41565 -0.0698916 -0.0176619 0.0111584 
226 1 71.9815 -10.9963 0.0679693 -0.0111363 0.00325884 0.00500954 
247 2 73.9219 -10.0751 0.655641 0.0165321 0.0386782 -0.00792439 
412 1 69.0072 -3.96091 3.79638 0.00557998 -0.0128317 -0.0170399 
424 2 67.9826 -4.05336 3.78216 -0.00849129 -0.0531132 0.0538465 
423 2 68.8497 -1.33784 3.89043 -0.0662098 0.098916 0.0423387 
411 1 69.7324 -1.46809 4.54777 -0.0224821 -0.0143405 -0.00474951 
404 1 69.7412 -2.98691 4.61271 0.00302073 -0.0190166 0.00279712 
406 1 71.8927 -5.01364 3.5025 0.0210776 -0.0205954 0.0116719 
415 1 71.9215 -4.79691 5.05737 0.00771038 -0.0175004 0.0123248 
427 2 72.9769 -4.71546 5.41081 0.00356481 -0.0990042 0.00954176 
429 2 69.6819 -6.65456 10.2295 0.113683 -0.017905 0.0159059 
420 1 73.0114 -7.44093 6.89714 -0.00626392 -0.0282371 -0.0163896 
430 2 75.3592 -7.56672 6.40301 -0.0281617 0.0139731 -0.00894376 
432 2 74.6415 -6.93039 7.87669 0.029973 -0.00289748 -0.00874087 
418 1 74.4506 -7.47017 7.06344 -0.00477707 -0.00785764 0.00381797 
425 2 69.4624 -1.3102 9.94203 -0.0654067 0.0286326 0.0450102 
414 1 70.7323 -3.38465 10.599 0.000939469 -0.00637359 -0.00642928 
413 1 70.1343 -1.46268 9.27712 -0.000150682 0.012208 -0.0155133 
410 1 70.4288 -0.602635 8.15609 0.00150841 0.0382354 -0.0043343 
403 1 70.4487 -1.60096 7.11188 0.00580871 -0.0146847 -0.0157101 
409 1 70.2008 -0.731645 5.7097 0.0418596 0.00681504 0.0131221 
398 1 70.1267 -3.70334 5.88576 -0.0158234 -0.00194669 0.0102887 
397 1 70.3697 -3.13992 7.02273 0.00773088 0.018722 0.0287784 
399 1 70.7548 -3.93715 8.31721 0.00230578 -0.0114616 -0.00599319 
405 1 70.5715 -2.89084 9.36447 -0.00881548 0.00287902 -0.0100533 
417 1 70.4625 -4.63978 10.4368 -0.00333916 0.00906644 0.000409568 
400 1 70.7471 -5.13274 5.91598 -0.0389869 -0.00413746 -0.0122069 
407 1 70.2884 -5.8744 9.90641 -0.000668018 -0.0285737 -0.0112155 
401 1 70.5384 -5.35448 8.3318 -0.00897911 0.0136896 -0.0120235 
228 1 69.0764 -11.7075 0.368421 0.00430176 -0.00959475 -0.0157242 
225 1 67.5346 -11.5465 -4.11019 0.00826914 -0.000947548 -0.00128456 
248 2 68.148 -11.4467 0.930392 0.0126208 -0.0563595 -0.00809096 
222 1 69.6054 -11.747 -0.998901 -0.00242711 0.0173615 -0.0107803 
246 2 65.2626 -11.1862 -3.84924 -0.0250561 0.0812186 0.0078937 
426 2 70.8853 -2.55933 11.2356 0.0366002 0.0196292 0.0369443 
234 1 66.2284 -11.5105 -3.40216 -0.0135419 0.0400794 0.0254149 
261 1 64.8813 -0.616965 17.5483 -0.0177192 -0.0195074 0.0120526 
255 1 65.6798 -0.925147 18.5172 0.0151166 0.0123663 0.0157995 
285 2 63.0535 -0.244829 16.9014 0.0346284 0.0290139 -0.00414122 
269 1 64.9803 -0.479018 16.1654 -0.000826741 0.000617878 0.0302768 
281 2 64.4348 -0.00652856 15.2814 0.097414 0.0172214 -0.0148169 
253 1 66.9094 -1.58888 18.1111 -0.00433465 -0.00905768 0.00384228 
267 1 68.3779 -3.35507 17.4443 0.00429127 -0.000549745 0.0209582 
279 2 69.3459 -3.85294 17.2305 -0.000466304 0.0314307 0.0438708 
265 1 67.4412 -3.26613 16.352 -0.0303624 -0.0204827 -0.0280406 
277 2 67.3858 -3.40433 15.283 0.0147173 -0.0248682 -0.0529503 
259 1 66.5646 -2.20168 16.6623 -0.0295462 -0.0109613 0.00372483 
266 1 65.9032 -1.40642 15.6883 -0.0091654 0.00421997 0.00643268 
278 2 66.0302 -1.52378 14.6446 0.0382958 -0.00465037 0.0121757 
270 1 63.5167 -0.0230262 17.8641 -0.0079839 -0.0108601 0.0112982 
264 1 66.0076 -0.850379 22.0353 -0.0200876 0.0113725 -0.0100257 
257 1 65.1497 -0.719566 19.7173 0.0211385 0.01325 -0.0199277 
258 1 65.9862 -1.13446 20.6973 -0.012803 0.0164452 0.0128057 
276 1 65.1182 0.253185 22.3441 0.00338254 0.00526783 -0.0318884 
288 2 65.0761 0.811122 23.2425 0.0708501 -0.121782 -0.0122017 
287 2 67.3364 -3.97714 23.3213 -0.0341348 -0.0431324 -0.00306418 
275 1 66.4194 -2.09028 22.9954 0.0181296 -0.0228859 0.0216836 
254 1 67.4589 -2.39678 19.0795 0.00491961 -0.000337491 0.00181703 
272 1 67.2387 -3.0544 22.8514 0.0112304 -0.0339818 -0.00651964 
262 1 67.9411 -2.81888 21.4477 -0.0047104 -0.0050467 -0.00732524 
284 2 69.5749 -4.0552 21.8082 0.0249535 -0.0522194 0.0140573 
256 1 67.3525 -2.11192 20.3908 0.00765228 -0.010966 -0.0177428 
268 1 69.0621 -3.96456 19.5438 -0.0167973 0.0110141 -0.00260932 
271 1 69.0719 -3.54625 21.0209 -0.00330525 0.0122554 0.014507 
280 2 69.7139 -4.80222 19.3815 -0.0153953 -0.00614332 -0.0849139 
260 1 68.1551 -3.59429 18.7031 -0.00847626 0.00656695 0.0366623 
273 1 63.5399 0.614233 19.1304 -0.00990677 -0.00680942 0.00383455 
263 1 64.0946 -0.0250916 20.2682 0.0106564 -0.0065568 0.0189359 
274 1 63.9049 0.388474 21.6222 -0.00790788 0.0200697 -0.00653775 
286 2 62.919 0.611649 21.9361 -0.0105284 -0.0045443 0.0269636 
290 1 72.0788 7.92201 32.1492 -0.0115602 0.0098234 0.00740703 
94 1 62.2205 -7.55665 27.8391 0.00928559 0.00144975 0.0118281 
96 1 62.1452 -6.32487 28.7262 0.00502993 -0.0112992 -1.19579e-05 
83 1 60.8638 -7.39284 27.2539 0.00624563 0.0046435 -0.00589704 
93 1 60.5233 -8.91746 26.8395 -0.0343361 0.0145581 -0.015797 
300 1 75.09 9.88303 31.7423 -0.0214862 0.0121794 0.0101613 
106 2 63.045 -6.72787 29.1772 -0.0367199 0.0624013 -0.0916673 
78 1 60.212 -5.04159 27.2899 -0.0326119 0.00858157 0.00669267 
84 1 61.7239 -5.13589 27.957 -0.0115054 -0.00471809 -0.0177266 