ITEM: TIMESTEP
790000
ITEM: NUMBER OF ATOMS
576
ITEM: BOX BOUNDS pp pp pp
-1.2000000000000000e+01 8.4000000000000000e+01
-1.2000000000000000e+01 3.6000000000000000e+01
-1.2000000000000000e+01 3.6000000000000000e+01
ITEM: ATOMS id type x y z vx vy vz 
217 1 5.27736 -11.2004 3.63296 0.0343933 -0.00935897 -0.00834616 
423 2 -0.883545 -8.76178 -11.5266 -0.0485844 -0.04863 -0.120754 
409 1 -1.03101 -7.75844 -11.5506 0.018255 -0.0240809 0.00673699 
403 1 -1.26648 -7.02338 -10.3399 0.0102543 -0.0065314 -0.0173754 
410 1 -1.70368 -8.06641 -7.76634 0.00255546 0.00885438 -0.00360321 
425 2 -1.68943 -9.23912 -7.42103 0.0129493 0.0195588 0.0408476 
413 1 -1.64025 -7.44805 -8.97206 -0.00344733 0.0061226 -0.000268547 
422 2 -2.8578 -7.25516 -7.44357 0.0472571 0.0424306 -0.00983883 
395 2 -11.5098 -6.87207 6.56651 -0.0515873 -0.0546137 -0.0456235 
178 2 -8.97203 -11.2346 9.75179 0.00151153 -0.0272551 -0.0238715 
17 1 -0.0453957 -4.68817 -9.67491 0.0160731 0.0227988 -0.025176 
397 1 -0.590311 -5.74662 -10.687 0.00762217 -0.00367979 -0.0210169 
426 2 -0.728525 -2.43088 -11.9803 0.0491638 -0.0457312 0.0078668 
14 1 0.0739028 -3.7458 -9.06785 -0.0182883 -0.0199935 0.0075781 
29 2 -0.0656321 -2.64416 -9.4654 0.0913469 -0.00465488 0.0157666 
353 2 8.29989 11.0145 6.74074 -0.00595184 -0.0584722 -0.00803442 
249 2 0.824159 -10.0973 0.892391 -0.0190553 -0.00553071 0.0707397 
238 1 3.15909 -8.91248 -0.111753 -0.0232942 0.0181373 0.0192791 
357 2 2.34868 -8.2616 -0.698428 0.0281693 0.0188399 -0.0324434 
240 1 4.38034 -9.00643 -0.974736 0.0146135 -0.0126075 0.0414765 
252 2 4.46434 -8.4413 -1.95676 0.00270948 0.0163491 -0.0111652 
228 1 5.20605 -10.0074 -0.370091 -0.0126152 -0.00744634 -0.00360437 
236 1 6.50565 -9.71951 -0.615125 -0.00227426 0.0131608 -0.0232657 
251 2 8.61843 -8.70685 -0.268159 -0.0234822 -0.0743599 -0.00740876 
466 2 -2.95317 5.10598 1.32796 0.108236 -0.0918785 0.0528087 
105 2 -3.03504 5.1172 0.380225 -0.0684567 -0.0214298 0.060664 
246 2 0.30728 -10.712 3.27948 0.0407165 0.0311199 0.0534856 
379 1 -9.42124 -9.56644 1.75743 0.0302154 0.0141141 0.0108639 
368 1 -9.56428 -11.2942 3.72232 0.01519 -0.0251407 0.0104846 
391 2 -9.29908 -8.56004 2.06118 0.0283922 -0.0328507 -0.0647876 
376 1 -9.5422 -9.95341 3.16799 0.00313831 0.0248195 0.00422167 
362 1 -10.7711 -11.29 4.44679 -0.00219907 -0.0227526 0.00223683 
364 1 -11.4693 -10.0607 4.47209 -0.00863718 0.0253298 -0.00424641 
370 1 -10.5955 -9.01585 4.00603 -0.00744979 -0.00621766 -0.0167607 
383 1 -11.7088 -7.27198 5.5623 0.0100437 -0.00521103 0.00643049 
380 1 -10.4956 -7.71232 4.74879 -0.0242333 0.0111226 0.00286749 
392 2 -9.38926 -7.57125 4.92473 0.0351885 -0.0276936 -0.0380582 
350 2 10.5656 11.2579 7.43507 -0.00203879 -0.0219311 -0.00221943 
354 2 6.2538 11.4047 5.40736 0.0329622 0.00419695 -0.0861583 
237 1 1.47731 -10.2451 1.67032 0.00215375 0.0128723 0.0077618 
155 1 -9.84133 -9.69835 11.5266 -0.000248665 -0.0113827 -0.00574992 
227 1 2.72958 -9.70323 1.0357 -0.0105301 0.00742611 0.0151443 
222 1 5.09591 -10.0245 1.20734 -0.0104834 0.0111897 0.00188685 
221 1 3.92755 -10.1525 1.64098 -0.00171528 -0.0196106 -0.0233075 
219 1 3.85859 -10.9245 3.1027 0.00160203 0.024462 0.0284065 
225 1 2.52166 -11.3556 3.5471 -0.0044445 0.00937339 -0.0216376 
224 1 7.98586 -11.9777 3.26915 -0.00240926 -0.00284657 -0.0117352 
218 1 6.61672 -11.3241 2.95791 0.031351 -0.0105817 0.0136318 
220 1 6.46697 -10.416 1.93312 0.0056024 0.000183447 -0.00396269 
247 2 9.62613 -10.5497 1.00482 -0.0810982 0.0455387 0.0145777 
235 1 8.99087 -10.4627 1.69172 -0.010155 -0.012558 -0.0107773 
232 1 9.1594 -11.4988 2.62142 0.0241605 0.011921 0.00390694 
226 1 7.62294 -10.0012 1.19955 -0.011356 -0.0157029 -0.00319173 
239 1 7.85977 -9.47353 -0.187254 -0.0170239 0.0253318 -0.000832364 
166 1 -9.79051 -10.7503 10.3935 0.0022349 0.0193964 0.00836109 
168 1 -10.939 -11.2883 10.0222 0.0183169 -0.0108179 0.00493974 
234 1 1.36545 -10.5564 3.06535 -0.00212335 0.0203513 0.00439564 
341 1 8.66985 11.9692 6.41181 0.0139266 -0.0033014 0.0142523 
338 1 10.066 11.975 6.96337 0.0192044 -0.00740188 -0.00116065 
417 1 0.850155 2.92101 -11.8668 -0.000317023 0.0297421 0.00483194 
147 1 -11.207 -8.31402 12.9674 0.020816 -0.0022899 0.0256895 
161 1 -9.66571 -6.27676 13.9825 -0.0210223 0.00179644 0.0185919 
173 2 -8.65402 -6.13006 14.0764 -0.0524581 0.0825675 0.041037 
153 1 -9.93972 -7.59639 13.4161 -0.00832116 -0.0303423 0.0149991 
429 2 -1.35645 2.4591 35.7445 -0.0488336 -0.0406014 0.0614927 
472 1 -9.88645 -1.73905 15.7949 0.000226263 -0.00934306 0.0146365 
497 2 -10.6619 -3.61127 18.0037 0.0221851 0.0430526 -0.0253037 
499 2 -10.8354 0.381751 13.9394 0.0983296 -0.0225131 0.0732665 
478 1 -9.02583 -0.958119 14.771 -0.00229239 -0.0121573 -0.0102188 
503 2 -8.48119 -0.394789 15.8179 0.0120675 0.0415578 0.081336 
473 1 -9.17153 -1.81064 17.0619 -0.0283582 -0.00202172 -0.00532328 
158 1 -10.8633 -5.32829 14.1326 0.0068392 0.0221041 0.00865709 
170 2 -10.6915 -4.37415 14.6084 0.0902556 0.0138744 -0.0860645 
474 1 -11.7846 -3.47888 17.6634 0.0120521 0.000880476 0.00897925 
470 1 -11.2952 -1.79717 15.6431 0.0170455 -0.0148971 -0.0154422 
487 1 -10.0594 -0.513712 13.8913 -0.00366924 0.00988435 0.00205348 
400 1 0.178801 -2.9058 35.45 -0.0146213 0.00861269 0.0136348 
484 1 -11.1867 -1.18179 13.1507 -0.00569844 -0.00464715 -0.0025904 
480 1 -8.47211 -2.04773 18.0462 0.00991213 -0.0162944 0.0128181 
490 1 -7.80752 -2.5043 18.9545 0.00963092 -0.00316545 -0.018789 
492 1 -7.40111 -3.15998 19.9576 0.0177854 0.00219751 -0.00119151 
489 1 -7.68904 -3.89345 21.0413 -0.00353566 -0.0137914 -0.0156738 
486 1 -7.83391 -5.17366 21.6445 0.020725 -0.0363732 0.00420103 
502 2 -7.36319 -5.63792 22.5032 0.125541 -0.0050854 -0.0161487 
404 1 -0.646928 -5.92678 34.6094 0.00711008 -0.0074438 -0.00937363 
427 2 -2.0219 -7.34232 34.1994 0.0341844 -0.0265667 -0.0836498 
424 2 -0.350545 -5.56043 31.9306 -0.0345023 0.00539239 -0.109762 
412 1 -0.0291279 -5.56704 33.1149 -0.0100806 0.00197791 -0.003913 
415 1 0.409006 -4.18528 34.964 0.00315977 -0.0450404 0.00548512 
250 2 1.62801 -1.91039 34.1306 -0.085024 -0.0295704 -0.0158227 
402 1 0.880202 -1.75635 34.8876 0.000365091 -0.015388 -0.00402885 
406 1 1.08775 -4.86727 33.7178 0.0105015 0.0148703 0.0224035 
419 1 3.68037 -4.07086 33.3554 0.0241772 -0.00705973 -0.0249955 
431 2 4.3062 -3.67958 34.0442 0.0681367 0.0474464 0.0512775 
416 1 2.65079 -5.16767 33.4836 0.0192107 0.00866869 0.00943411 
428 2 3.08853 -3.24044 32.7374 -0.13228 -0.0443983 0.060882 
401 1 0.127054 -0.67731 35.2162 0.0174967 -0.0276405 -0.0270257 
399 1 -0.276142 0.635617 35.2567 0.013017 0.0119998 0.00389217 
407 1 -0.186552 2.18725 35.4864 0.0238189 0.0253544 -0.00606135 
398 1 -0.164403 -5.39547 35.9639 0.00577161 0.00641769 -0.00445472 
432 2 2.24079 2.65803 33.0086 0.0530697 0.0209137 0.0190048 
420 1 6.54918 2.66627 33.4461 0.00696114 0.0181179 -0.00960403 
418 1 3.90557 2.97775 33.7472 0.00282486 0.00653447 -0.00469717 
414 1 2.5914 3.10333 33.8292 -0.0158941 0.00491253 0.0155515 
408 1 5.21004 2.84699 33.509 0.00503499 0.00656213 -0.00843352 
405 1 1.67567 3.03234 34.9475 -0.00645554 -0.00960575 -0.0337114 
136 2 6.90671 1.77251 33.8836 0.0877845 -0.0358235 -0.0265415 
430 2 6.92773 3.29344 34.3202 0.0090025 0.0481824 0.0528008 
411 1 -1.44836 -7.13945 35.0495 -0.00287713 -0.00875794 -0.0307212 
500 2 -11.7161 -5.49011 18.02 -0.019475 0.0502981 0.0129215 
162 1 -8.79696 -8.32337 12.9396 0.0248386 0.00791986 -0.0176734 
174 2 -7.35474 -9.60419 12.1103 -0.117427 0.0503684 0.0104829 
177 2 6.59506 -10.3143 12.1086 -0.0788857 0.0673075 -0.013475 
149 1 -11.2601 -9.43176 11.9999 -0.0135667 -0.0142367 -0.0135455 
165 1 -8.60704 -9.568 12.2928 -0.00201037 0.00162161 0.0265075 
277 2 -7.41106 33.8449 -6.78193 0.023247 -0.000751924 0.0705673 
279 2 -9.21027 34.5359 -8.15963 0.0555152 -0.0181672 -0.0312144 
267 1 -8.43121 33.7614 -8.31445 -0.0231073 -0.0157712 0.000391868 
265 1 -7.30266 33.1299 -7.65633 0.0136918 0.00460851 0.00505779 
260 1 -8.70346 33.0803 -9.59037 0.017707 0.00627913 0.0029114 
266 1 -5.52628 31.3779 -7.59204 -0.00614719 0.00223233 -0.00648603 
253 1 -6.41435 32.3233 -9.63322 -0.0081485 -0.00943695 -0.00360343 
259 1 -6.57804 32.0831 -8.20475 0.0370786 0.0346987 0.00403495 
254 1 -7.68827 32.3516 -10.3797 -0.0100826 0.00329855 0.00722047 
256 1 -7.10099 33.021 -11.6442 0.0112787 0.00317801 0.0237708 
268 1 -9.94401 33.488 -10.3017 -0.0151127 -0.0090265 -0.0211087 
280 2 -10.9065 33.7201 -9.6952 -0.0167221 0.0567182 -0.0204407 
255 1 -5.19185 31.8632 -10.2875 0.0168102 0.00241317 -0.00609665 
269 1 -4.41339 31.1035 -7.98281 -0.00376037 -0.00690269 -0.0156188 
261 1 -3.97226 31.4255 -9.32406 -0.014131 0.0117029 0.00891664 
273 1 -2.34082 31.6296 -10.867 0.0152183 -0.0110595 -0.00345585 
257 1 -4.91517 31.9376 -11.5894 0.00786522 0.00808487 -0.0174656 
244 2 10.1115 35.7781 2.59976 0.0854009 -0.0507485 -0.0583083 
529 2 0.768653 20.7734 8.14588 -0.0370873 0.0457549 -0.0367554 
270 1 -2.60806 31.6422 -9.46346 0.0231462 -0.0246893 0.0016061 
285 2 -1.64843 31.7499 -8.69072 -0.00922809 0.0289043 0.000170883 
281 2 -3.77134 30.1679 -7.34191 0.0619098 -0.00850985 -0.0591529 
536 2 6.00354 18.6716 0.640321 0.0136204 -0.0374235 0.0617736 
533 2 -2.37063 17.1484 4.35709 -0.0058514 0.0535404 0.0941917 
513 1 -1.29335 17.6405 4.34338 0.0186471 0.016881 -0.0118735 
521 1 -1.24451 18.1964 5.51652 -0.0138402 0.0169728 0.00549242 
534 2 -0.666747 16.1388 1.84813 -0.0740641 0.0119604 0.0384353 
525 1 0.0899976 16.7864 2.45884 0.0266157 0.00212059 -0.0181028 
522 1 0.0592949 17.458 3.69077 0.00444562 -0.0131283 0.00249752 
528 1 2.94413 17.8124 0.413398 0.0103867 0.0280362 -0.0156867 
526 1 1.97558 17.0924 0.424188 -0.00358307 0.0123649 0.0114783 
538 2 1.76481 16.7289 -0.595502 0.023537 -0.0118774 -0.0976549 
515 1 1.24356 17.3717 1.7458 -0.0256329 -0.0150157 0.0296489 
358 2 5.20552 15.2426 3.68555 -0.00931459 0.0244898 0.0706168 
344 1 10.47 18.6157 3.50012 -0.0370743 -0.0143985 -0.0022656 
336 1 8.1508 17.4197 3.66817 0.00932323 -0.00309335 -0.013534 
330 1 8.88365 16.2233 4.08163 -0.01743 0.0222511 -0.0156116 
328 1 10.3064 16.2903 4.32733 0.004521 0.0106914 -0.00484781 
326 1 10.9958 14.951 4.48686 -0.014576 -0.0131058 0.020165 
334 1 10.9168 17.5122 4.20809 0.00743501 0.0229211 -0.00934129 
348 1 6.87004 17.042 3.11753 0.00824366 -0.00724498 -0.00893363 
346 1 6.10114 15.9855 3.86732 0.0140218 -0.0057156 0.00913028 
329 1 8.07402 15.1674 4.61786 -0.00767195 -0.00429174 0.00413146 
325 1 10.2427 14.0259 5.39007 0.0163188 0.0145825 -0.0181191 
335 1 6.74922 14.6676 4.28728 -0.0201757 0.00162853 -0.00165203 
360 2 6.75041 17.8667 2.46289 0.0551248 0.0351354 -0.00753097 
327 1 8.82176 14.2088 5.20222 0.00938234 0.0210231 -0.0121384 
509 1 1.72491 18.3302 2.77758 -0.00791886 0.00827887 0.00677593 
507 1 1.33695 18.1323 4.02093 0.0377797 0.0179543 -0.00561218 
516 1 3.64049 18.7357 1.07764 -0.00704792 0.00638246 0.00211121 
527 1 5.20517 19.0988 1.40813 0.0275924 -0.00286568 -0.0140393 
505 1 1.30674 19.3205 4.89251 -0.00739145 0.0161079 0.0138498 
524 1 5.40711 20.2078 2.18654 0.0268375 -0.00970127 0.0129649 
510 1 2.87326 18.9296 2.4607 0.0193343 0.0149221 -0.00903004 
514 1 4.45776 20.6158 2.82302 0.0103426 -0.0262112 0.0128455 
512 1 2.49978 21.2063 5.34712 0.0145673 0.00413915 0.0163402 
523 1 4.5551 21.8969 3.73046 0.0130363 -0.0148786 -0.00838208 
535 2 4.72742 22.7844 3.0397 0.0272172 -0.0168622 0.0978921 
532 2 4.24204 22.2383 5.76127 0.0539286 -0.0244841 0.0449737 
520 1 3.77259 22.0956 4.86988 0.0029462 0.00367711 0.00803903 
508 1 3.47597 19.7162 3.40378 -0.00555104 0.00274315 0.010999 
506 1 2.36985 20.2193 4.33717 -0.023798 0.000377101 0.00621835 
356 2 11.1681 19.3897 3.01042 0.0166138 0.00528402 0.0323264 
359 2 8.89732 19.2383 2.70394 0.00434256 0.0388359 -0.0179119 
347 1 9.21591 18.4455 3.36686 -0.00288222 0.0124002 0.0116639 
209 2 -8.38302 29.2597 5.0195 0.0299133 0.0188928 0.00387931 
189 1 -6.10117 28.7244 5.39428 0.00176398 -0.00706944 -0.0261029 
133 2 -6.08784 26.839 3.94903 -0.017086 -0.0466179 -0.0202944 
197 1 -7.40875 29.3321 5.40799 0.0301039 0.0176746 0.0267178 
213 2 -3.30369 26.2527 4.86975 -0.0432826 -0.0130825 0.023423 
201 1 -4.14065 27.2344 5.0259 -0.0211158 0.00598454 -0.00702713 
198 1 -5.52103 27.5353 4.81444 0.0422495 -0.0202624 0.00500263 
202 1 -1.40881 27.9982 5.62191 0.0144165 -0.0303988 0.0222796 
214 2 -1.04901 27.3231 6.34978 -0.0670926 -0.0528694 0.0636901 
191 1 -2.91743 28.0635 5.39782 0.000542893 0.0114503 0.0198255 
204 1 -0.970958 29.1796 5.30804 0.004951 0.00691261 0.00842168 
185 1 -3.66369 29.1113 4.53484 -0.00673195 -0.0017456 0.0340506 
374 1 -11.8599 33.7522 4.13285 0.00329347 -0.0201258 -0.0177443 
206 2 -7.94172 30.854 6.63547 0.0698616 -0.00231211 0.0514021 
193 1 -6.58635 33.1605 5.80468 0.024569 -0.000231067 -0.00286987 
205 2 -7.60824 33.321 6.447 0.10263 -0.0351395 -0.0275975 
187 1 -6.41556 31.7201 5.83068 -0.0205763 -0.0140699 -0.0247925 
195 1 -5.8775 33.8308 4.81672 -0.00563177 -0.00549807 0.00195084 
194 1 -7.10765 30.5388 6.23085 0.0183063 0.014863 0.00491485 
367 1 -10.7797 34.61 4.46458 -0.0037389 0.00537852 0.041568 
386 2 -11.2553 32.8599 3.78484 -0.015075 -0.0675425 -0.0303605 
373 1 -9.30783 34.4384 4.21699 -0.0086911 0.00121131 0.0058009 
207 2 -6.26833 34.7542 4.93328 0.0686342 0.0219224 0.0277728 
387 2 -9.04369 33.3955 4.51779 0.00440348 0.0328538 -0.0347368 
361 1 -11.3767 35.6725 5.14084 -0.0275606 -0.00441613 -0.0050991 
531 2 3.45977 20.9737 7.35741 -0.0500553 -0.117941 0.0761499 
208 2 -4.32124 34.7021 2.52557 -0.0299196 -0.0379374 -0.0108249 
196 1 -4.30486 33.7207 2.80656 0.0130001 -0.00561535 0.00191656 
199 1 -3.19128 33.0327 2.1013 0.00629157 0.00604829 -0.0333836 
188 1 -4.61436 33.3459 4.21109 -0.0127959 -0.0302738 0.0172148 
181 1 -5.41401 30.9679 4.76744 0.013507 -0.00065773 0.00971654 
182 1 -4.80811 31.779 3.78536 -0.0032488 -0.00770024 0.00988014 
190 1 -2.60491 31.8597 2.37067 -0.0206211 -0.00427952 -0.00649816 
184 1 -3.49748 31.121 3.33714 0.00869796 -0.0108322 -0.00636363 
203 1 -0.358276 30.6526 3.33514 0.0440135 -0.00564184 -0.0206388 
186 1 -2.79523 30.1114 4.06492 -0.00212481 -0.0217407 -0.00339748 
192 1 -1.36056 30.0596 4.3504 -0.00764845 0.005542 0.00187798 
183 1 -4.90333 29.579 4.93675 -0.0333129 -0.009746 0.0140022 
200 1 -1.15198 31.7159 2.71225 -0.00661893 -0.0171404 0.00140738 
211 2 -2.51285 33.3352 1.06735 -0.0767662 -0.0529826 0.0623964 
215 2 0.5796 30.3144 3.10711 -0.0420523 0.102584 0.0269433 
271 1 -9.57793 33.5754 -11.5908 -0.0075772 -0.00199763 0.00774492 
212 2 -0.711628 32.2005 2.05723 0.0462854 -0.0472124 -0.0459624 
245 2 2.06407 34.8224 4.56391 -0.0577743 -0.0169963 -0.0224842 
388 2 -7.52679 35.4744 3.77608 0.0437678 -0.0654792 -0.0552376 
233 1 2.91793 35.5413 4.50229 -0.0123431 0.0099516 0.0133855 
242 2 4.18564 34.6987 6.43183 0.00974875 -0.0619028 0.0413503 
230 1 3.97404 35.3432 5.4037 0.0061561 0.0147455 0.0153397 
223 1 5.12211 35.8206 4.69989 0.0110111 -0.00737229 0.00653349 
375 1 -8.66837 35.5843 3.87941 -0.0152645 0.0301709 -0.0146954 
241 2 6.36485 34.1035 5.57306 -0.0459139 -0.0168805 0.0234851 
229 1 6.33135 34.9613 4.95686 -0.00266583 0.00317378 -0.00637396 
231 1 7.40946 34.9831 4.06163 0.00390254 0.02505 0.0170426 
243 2 7.85231 34.1218 3.95512 0.0268473 -0.0270793 0.0557881 
518 1 -0.836703 18.7331 6.55112 -0.0138885 0.0222506 0.0010368 
530 2 -0.794258 18.7687 7.83998 -0.0159104 0.01103 -0.0312688 
216 2 5.00949 13.2856 3.97487 0.0516181 0.00787211 -0.0592229 
519 1 2.58814 20.7362 6.65318 0.0014376 0.0149928 -0.00959222 
333 1 7.96482 12.9913 5.66804 0.0083672 -0.0274813 -0.000192412 
511 1 0.609005 19.5195 6.20823 -0.00517023 -0.00520228 0.019688 
331 1 10.8906 12.9445 6.17542 -0.0275261 0.00266376 -0.0123149 
342 1 6.86656 12.3451 4.95806 0.0133322 -0.0179419 -0.0315312 
517 1 1.1925 20.4929 7.07236 0.0165869 0.00765568 -0.00661449 
345 1 6.02063 13.4142 4.48775 -0.00714584 -0.00299008 -0.0339652 
263 1 -3.48916 31.7425 -11.905 0.0160805 -0.0171559 0.0146824 
575 2 -8.19664 33.0775 27.8721 -0.0361453 0.094005 0.0599649 
87 1 8.35832 23.0755 28.5866 -0.0126025 -0.000217116 -0.0293339 
99 2 10.4141 23.2555 29.1985 0.00748416 -0.0394108 0.00587141 
85 1 9.7206 22.6324 28.5472 0.0259724 -0.00416681 0.0276635 
100 2 5.91763 23.2394 28.0437 0.0698932 -0.106542 -0.0547626 
80 1 6.93246 23.0102 28.389 -0.0177823 0.00171439 -0.0231508 
262 1 -8.19552 33.4091 35.5503 -0.00831566 0.0197115 0.000341435 
272 1 -7.8375 33.81 34.2191 -0.00969898 0.0217927 0.0223442 
258 1 -5.86541 32.7808 35.7055 0.00500643 -0.006779 -0.0273629 
275 1 -6.41301 33.9527 33.5954 0.0110335 -0.00262999 7.9813e-05 
288 2 -3.69375 33.4154 33.0803 -0.0131053 -0.0979063 -0.0192952 
276 1 -4.05152 33.0218 33.945 -0.0257979 0.00683881 -0.0251012 
264 1 -5.49537 33.2124 34.3867 -0.00973988 -0.000673404 0.000632582 
274 1 -3.12966 32.3822 34.7522 -0.0448543 -0.014191 -0.00729462 
286 2 -2.06977 32.6788 34.4246 0.116136 0.00596121 -0.118788 
64 2 18.6668 3.93062 11.113 0.140025 0.00438056 -0.0572506 
574 2 19.5709 3.16565 2.57497 -0.0342341 0.0488539 0.0392565 
563 1 17.1176 -11.6317 3.0188 0.0163151 -0.00727922 0.000161734 
352 2 19.1737 2.29347 2.39492 -0.0334345 0.0171034 -0.00288059 
572 2 17.4142 -11.0192 3.94971 -0.0387512 -0.0176567 0.0324162 
464 2 19.2292 3.20023 10.4796 -0.0452034 0.101413 -0.0517936 
349 2 12.5334 11.7254 6.65104 0.00821446 -0.0605646 -0.0493714 
93 1 34.261 18.1364 -6.08232 -0.0248115 -0.00200441 0.015499 
90 1 33.281 17.2811 -6.03117 -0.00737136 -0.00339121 -0.0123086 
102 2 34.4667 18.5439 -7.02983 -0.0679426 0.00766992 -0.022144 
540 2 33.6047 22.121 -6.91637 -0.046569 0.0398726 -0.0184304 
537 2 32.859 21.8516 -7.35161 0.0196072 -0.0139714 0.00983775 
570 2 20.7068 31.8074 -6.1929 -0.019521 0.0403304 0.0487026 
283 2 18.8381 17.5808 3.4741 0.0678452 0.00952255 0.0923805 
278 2 18.0379 17.192 3.29515 -0.0278776 0.0262665 -0.0110107 
101 2 30.6357 16.4338 -5.00704 0.0377839 0.00264348 -0.0868446 
89 1 31.3972 15.6651 -4.583 -0.00827605 -0.0110698 -0.0109548 
81 1 32.4891 16.4623 -5.01861 -0.001852 0.0130151 -0.00781199 
86 1 31.5609 14.2374 -4.93532 0.0123108 -0.00225461 -0.0115857 
98 2 31.3607 13.7112 -5.78176 0.0784371 -0.00912448 0.0167535 
79 1 32.2691 13.8247 -3.74381 0.0139419 0.0296942 -0.0136918 
73 1 33.5579 14.6156 -3.72607 0.020883 0.00380305 -0.00833689 
75 1 33.7188 15.7321 -4.37376 -0.0331505 0.0274261 0.0118163 
355 2 34.7851 13.1684 -2.6522 0.0270659 -0.104706 0.0135282 
74 1 34.7906 14.1622 -3.03207 -0.0237201 -0.0114856 -0.00691191 
97 2 31.8152 13.6845 -2.58179 -0.0569118 -0.124498 0.0248127 
77 1 34.7765 16.8025 -4.0821 0.00805661 -0.0192474 -0.0154954 
76 1 35.3672 15.1586 -2.41406 -0.00940635 -0.00449846 -0.0154427 
83 1 34.9087 17.8169 -4.89779 -0.00482591 0.00108568 0.0223694 
78 1 35.674 16.2891 -3.04576 -0.000797506 -0.0132046 0.0178222 
566 2 16.1119 30.9369 -6.20219 0.0373272 -0.061491 0.000832558 
569 2 15.4222 31.1318 -3.61995 -0.0465992 0.0346554 -0.0437923 
557 1 16.711 31.1748 -5.56078 0.0109931 0.0134874 -0.00291321 
567 2 13.0528 33.3131 -2.70458 0.0378549 0.0306374 -0.0589603 
548 1 14.2839 33.1104 -3.10506 0.00725952 -0.00691811 0.000150741 
553 1 15.1018 33.0217 -4.38342 -0.00354143 -0.0111127 0.00275934 
565 2 15.449 33.8999 -4.82053 -0.0095747 0.0134496 -0.0498839 
555 1 14.9462 32.5504 -1.90549 0.00581316 0.00769223 0.0195997 
547 1 15.9745 31.7369 -4.01185 -0.0154591 0.0119188 -0.0106786 
541 1 17.246 32.2209 -3.151 0.0126196 0.00513157 -0.031659 
542 1 16.479 32.6279 -2.04581 0.00370124 -0.00499589 0.0107518 
556 1 14.5059 32.813 -0.690162 -0.0204317 -0.00207093 0.0130974 
568 2 13.4272 33.3586 -0.727956 0.0319369 -0.0221211 0.0605969 
544 1 17.1359 33.264 -1.02799 -0.0108696 -0.0134443 0.00682474 
554 1 18.1693 31.5009 -5.65702 -0.0241779 -0.0145511 0.00859465 
549 1 19.0947 32.2531 -4.87139 0.00204336 -0.0016942 -0.0122383 
546 1 18.5463 33.6374 -0.995395 0.0153724 -0.00966467 0.014444 
543 1 18.4506 32.5927 -3.35292 0.014399 0.0147875 -0.00358338 
558 1 20.4681 32.4302 -5.10064 -0.00535145 0.030059 -0.0117419 
545 1 19.1344 33.5101 -2.33401 -0.0143519 0.0140847 0.00744146 
561 1 21.2599 33.4181 -4.32125 0.00109328 -0.00539629 0.00143803 
573 2 22.5313 33.4522 -4.31927 0.118997 -0.0102735 -0.00297513 
551 1 20.4466 33.7353 -3.31786 0.00721121 -0.0149501 0.00510978 
385 2 21.2973 33.7915 -0.451023 0.00358282 0.0032827 0.0630685 
340 1 13.0914 15.8952 3.71247 0.00433644 0.00360984 0.0232805 
339 1 13.1978 13.4744 5.36295 0.00539097 -0.0300487 0.0067951 
351 2 14.2791 13.0495 5.08164 -0.0166783 -0.0102533 0.000781684 
332 1 12.5643 14.7724 4.69548 -0.00649662 0.00121813 0.0239929 
343 1 12.1896 17.0321 3.81348 0.00357408 0.0117855 0.0310726 
103 2 33.1059 14.4794 0.653875 -0.013485 0.0622991 -0.0473431 
88 1 34.0626 14.3863 0.105268 -0.0159677 -0.0297448 -0.0127482 
91 1 34.983 13.9721 -0.249389 -0.00508029 -0.0178706 0.00767231 
550 1 16.6413 33.2384 0.442206 0.000779173 -0.0229512 -0.0107253 
559 1 15.2032 33.0628 0.661199 0.000736779 -0.0115323 -0.011342 
571 2 14.7645 33.7419 1.51798 -0.00590569 0.0322971 0.0983087 
560 1 17.2567 34.342 1.38315 -0.0162039 -0.00604539 -0.010462 
576 2 18.8406 32.6356 0.973737 0.0754735 -0.0153164 -0.00571256 
562 1 20.7195 33.0239 -0.0256591 -0.0115056 0.0168423 -0.015691 
564 1 19.2693 33.0917 0.115833 -0.00340821 0.00941001 -0.0265666 
421 2 20.8894 31.8984 -0.406991 -0.11756 -0.00765148 0.0793556 
337 1 12.2545 12.6644 6.16142 0.00465428 -0.00461751 -0.00944746 
176 2 30.7982 12.5108 -8.52457 0.0707004 0.0502069 0.0184581 
71 2 25.4875 26.1685 9.29136 0.00468446 0.0683621 0.034209 
504 2 24.8403 26.0966 9.19995 0.0144795 0.0479038 -0.059786 
552 1 17.0764 35.4521 2.165 0.0170662 -0.0136293 0.00773844 
210 2 28.6544 30.8617 10.0731 -0.0286608 0.0117299 -0.0938428 
248 2 30.5467 12.1187 -7.74949 0.0847631 -0.00722339 0.017037 
284 2 28.708 29.7568 10.1442 -0.12978 -0.0478639 -0.0328401 
66 2 55.0904 -11.1374 -6.5221 -0.0469294 -0.00862363 -0.0393804 
131 1 55.5945 -10.2729 27.9053 -0.0116305 0.0222909 0.0102579 
118 1 54.5075 -11.3289 30.1852 -0.00546887 0.0100016 -0.0391645 
140 2 53.8605 -10.2909 27.9709 -0.0144468 -0.0545525 0.0132475 
128 1 54.469 -10.7781 28.7099 0.0114344 -0.0231004 -0.00282062 
143 2 55.6172 -9.93792 26.8157 -0.0798767 -0.0670333 -0.0592879 
120 1 56.753 -10.3114 28.5876 -0.021374 -0.0153507 0.0163443 
132 1 57.8784 -9.76318 28.0096 -0.0233216 -0.00570071 0.00490311 
114 1 56.753 -9.99036 30.0523 0.00141418 -0.0318541 0.00593384 
130 1 59.2336 -9.51669 28.0951 -0.0362536 0.00617272 0.0148757 
110 1 56.3439 -11.2564 32.0333 0.000446751 0.00759856 0.0178155 
109 1 57.5851 -10.7787 32.555 -0.0158522 0.00708649 -0.00370549 
112 1 55.699 -10.6265 30.8434 -0.0107906 -0.00672832 -0.0261148 
122 1 59.3757 -11.6591 33.9363 0.0236772 -0.0323242 0.0254843 
115 1 57.8164 -11.3389 33.8965 0.00620367 0.0260477 -0.0443704 
113 1 57.9631 -9.58495 30.5211 -0.0225105 -0.0149173 0.00269911 
111 1 58.3716 -10.261 31.5498 8.23451e-05 0.0182814 -0.00906135 
119 1 59.3969 -9.0866 29.623 0.000431157 0.000665924 -0.012293 
117 1 59.8492 -10.1056 31.9701 -0.00522981 -0.00800189 -0.0114047 
142 2 59.6806 -8.95707 27.3461 -0.0427505 -0.0379273 -0.0364942 
61 2 53.991 27.001 -6.54803 0.0179483 0.0158943 -0.0164441 
43 1 54.1624 29.1297 -6.03852 0.0101904 -0.0053979 0.0197844 
49 1 54.5242 27.9168 -6.84046 0.00438289 0.0119236 -0.0139221 
44 1 55.2116 28.2324 -8.00193 0.00721642 0.0248375 0.00639754 
63 2 56.4544 26.4757 -9.11421 -0.109258 0.0193029 0.00192503 
51 1 55.7781 27.3556 -9.08692 -0.0287148 -0.024631 0.000336183 
55 1 56.1973 28.4511 -10.0348 0.017178 0.0065138 -0.0138238 
52 1 54.9747 28.476 -10.7973 -0.000214906 -0.0269596 0.000443103 
38 1 55.4837 29.6729 -7.9794 -0.000821732 -0.00635665 0.0208703 
46 1 57.1462 29.8479 -9.82711 -0.029165 -0.00528558 -0.0219484 
104 2 37.2008 15.9346 0.372558 -0.0507619 0.0478034 0.0856072 
37 1 54.6902 30.072 -6.97607 -0.0106561 0.0224454 -0.00453696 
54 1 58.2315 34.1584 -7.03433 -0.00984311 -0.0115432 -0.00821964 
39 1 55.396 31.2432 -6.30561 0.0121607 -0.0104268 -0.00194569 
58 1 56.9253 33.5207 -6.91176 -0.00592142 -0.0333472 -0.000859272 
41 1 56.3299 31.872 -6.90999 -0.00432458 0.0107209 0.00292999 
40 1 56.6436 30.4428 -8.76877 0.00615981 -0.0252194 0.00471133 
42 1 57.0267 31.6971 -8.12055 -0.0171406 0.00893827 0.0204294 
48 1 58.112 32.5038 -8.64239 -0.0175522 0.0210491 0.0312316 
70 2 59.8825 34.0866 -8.4637 0.0156458 0.0437839 0.0371674 
60 1 58.8594 33.6673 -8.1861 -0.00147888 0.0279682 0.0333307 
56 1 58.6102 31.8138 -9.85164 0.000669918 0.0122136 0.00715471 
67 2 54.5383 29.0693 -11.5941 -0.0488564 -0.00986666 -0.0227058 
59 1 58.3415 30.4601 -10.1107 0.0179232 -0.00983785 0.000801372 
69 2 58.9967 35.1898 -7.20679 0.0523442 -0.0963794 0.0460638 
68 2 59.0397 30.3641 -10.9626 -0.00953556 -0.0292792 -0.0334646 
62 2 55.7286 30.9957 -4.09205 0.0560358 -0.0917587 0.0352365 
84 1 36.139 17.3284 -2.17384 0.00179897 0.0208828 0.0130814 
95 1 36.7158 17.0825 -0.954801 -0.00154238 -0.0290767 -0.000563556 
92 1 36.8659 15.7446 -0.583424 0.00110354 0.0227754 -0.00709269 
107 2 37.5216 17.7794 -0.58015 -0.0255328 -0.0310759 0.0354497 
72 2 59.0953 32.5747 -10.5549 -0.0147214 -0.0151695 -0.0360522 
96 1 36.6174 18.5258 -2.95961 0.0106779 -0.0253379 -0.0104554 
106 2 37.4246 19.2207 -2.56065 0.0526511 -0.0562222 0.0696733 
50 1 53.7657 29.1355 -4.65637 0.00357762 -0.000119858 0.0215682 
65 2 53.012 28.5728 -4.23335 0.095574 -0.0435951 -0.0240759 
53 1 53.8208 30.6348 -4.20987 0.00218736 0.00791819 -0.00990048 
94 1 35.9819 18.7549 -4.22253 -0.0221443 0.00633158 -0.0144755 
57 1 56.2472 34.656 -6.57671 0.0189175 0.0113826 0.00894537 
47 1 55.7037 35.8678 -6.39916 0.00789796 -0.0113365 -0.0408318 
45 1 54.8668 31.3837 -4.94404 -0.0224427 0.00621009 0.0098615 
82 1 36.0482 14.7913 -1.22319 0.0091616 0.0292492 0.0118465 
124 1 54.3799 35.5552 32.0394 -0.0197278 0.0141612 0.00484993 
139 2 54.2539 34.611 32.596 0.041258 0.00414517 0.0770148 
496 2 52.5364 35.383 30.6225 -0.0404621 0.0468511 -0.0805052 
116 1 55.6874 35.7973 32.8849 -0.0139411 0.0125121 0.00807948 
123 1 55.7867 35.766 34.505 -0.0019704 -0.00486662 0.0016214 
127 1 53.6568 35.7319 30.7446 -0.00764908 0.0220074 0.00916326 
121 1 57.2175 35.4816 34.7343 -0.00479007 -0.011619 -0.000133127 
32 2 72.4152 -3.29357 -1.07377 0.0172801 0.00444004 -0.0340151 
10 1 73.5229 -1.59054 -0.453079 -0.0235736 -0.00889096 0.0100062 
20 1 73.0032 -2.94629 -0.252618 0.031568 0.00823084 -0.00948384 
19 1 72.8961 -0.720639 -1.41516 -0.0120397 0.0165295 -0.000407157 
28 2 71.8131 0.845929 -2.17945 -0.0498195 0.0104867 0.0993301 
16 1 72.2936 -0.130308 -2.411 -0.0185148 -0.0081268 -0.0143968 
31 2 71.815 -0.556845 -3.46758 -0.0867935 0.105876 0.0223141 
1 1 75.9772 0.639109 -0.483353 -0.00569749 -0.0150182 -0.0120442 
13 1 77.4902 2.73132 -1.3964 0.0133433 0.00366694 0.0186435 
25 2 78.1567 2.61282 -2.20392 -0.112981 -0.0036915 0.0188412 
7 1 76.6368 1.74379 -0.920045 0.0162205 0.0249266 0.0264653 
27 2 79.3336 3.35732 0.70736 -0.0847034 0.166845 -0.00443218 
8 1 78.3639 3.77123 0.671598 -0.00908955 0.00845109 0.0143911 
15 1 77.6067 4.005 -0.462194 0.0117559 -0.0106443 0.0238178 
366 1 83.7263 -9.83074 5.64672 -0.0273486 -0.0428982 0.0134217 
365 1 82.8191 -10.9653 5.7994 -0.034624 -0.0127608 -0.0164077 
381 1 80.6579 -11.6897 6.40123 -0.0037444 -0.00156681 0.0112948 
4 1 74.4925 -0.9539 0.475972 -0.0187374 -0.0118759 -0.00938648 
23 1 73.1272 -3.6881 0.812304 0.00486628 0.0120293 -0.000646235 
35 2 72.346 -4.52677 0.843198 -0.0435701 -0.023047 0.00162897 
12 1 73.8403 -2.83206 1.98045 -0.0125554 0.0154798 0.0170207 
6 1 74.5534 -1.48492 1.69621 -0.000392956 -0.0121304 0.0330984 
5 1 74.2254 -0.296753 2.42485 0.0227601 0.00297022 0.014071 
11 1 73.5354 -0.373625 3.72106 0.00271425 0.00785709 0.0199784 
22 1 73.0878 -1.6384 4.02692 0.0159016 0.0288874 -0.00383696 
24 1 73.2575 -2.83322 3.2663 -0.0198831 0.0117891 -0.00680653 
34 2 72.5898 -1.62051 5.04985 -0.0219914 0.0474579 0.0504276 
36 2 72.6369 -3.65739 3.49521 -0.084675 -0.0272324 -0.0836734 
21 1 73.9718 0.92771 4.46757 0.016888 0.00461498 -0.0159011 
30 2 73.7906 0.997646 5.49087 -0.0638821 -0.0469599 0.00492359 
2 1 75.0294 0.237895 0.574985 0.0062957 -9.90708e-05 -0.00399816 
3 1 74.7609 0.834164 1.86059 -0.00458312 0.000230013 -0.00328921 
26 2 73.7635 2.88264 1.8183 -0.0284944 0.00406376 -0.0767377 
9 1 74.347 2.10504 2.49911 -0.023948 -0.0111575 -0.0155582 
18 1 74.0657 2.2516 3.99148 0.0187218 0.00502333 0.0281379 
179 2 72.2635 11.9295 0.320194 -0.0038716 0.0791197 -0.0488664 
372 1 83.3021 -8.37764 5.4179 0.0149485 -0.0202076 -0.00506987 
156 1 83.8373 -11.118 10.5478 0.0167075 0.014455 0.0096754 
396 2 81.4883 -7.16689 5.86475 0.0618988 -0.0344573 -0.032781 
384 1 81.9288 -8.28886 5.67886 -0.01598 0.00412053 -0.00190968 
150 1 83.4466 -9.95261 11.2705 -0.00806238 0.0079894 -0.00691393 
371 1 81.5354 -10.5665 6.44704 0.0145929 0.0109166 0.00203987 
390 2 79.6634 -8.47634 7.28857 0.0113069 0.0606362 0.0366834 
167 1 81.0885 -8.56245 9.09378 -0.0141582 0.0425045 0.0131426 
382 1 81.3195 -9.11076 6.55622 0.00525504 0.0281934 -0.00787988 
148 1 82.241 -9.11856 11.4657 0.0126486 0.00310476 -0.00998252 
164 1 80.7463 -8.53854 7.75843 -0.00404437 -0.0125538 -0.00572543 
175 2 80.6395 -7.45735 10.5058 0.0245913 -0.0187863 0.0455419 
154 1 81.1546 -8.47795 10.6484 0.00527063 -0.024176 -0.031678 
180 2 83.0755 -11.6296 9.84437 0.000907251 -0.0375789 0.00659928 
135 2 76.224 4.0023 11.5318 0.136716 0.0710907 0.000219881 
282 2 76.4027 4.13515 10.6608 -0.0366047 -0.034977 0.0432312 
393 2 79.7221 -11.3239 5.8993 -0.037768 -0.0556614 0.0627444 
125 1 60.3453 -11.0601 33.0301 -0.011025 0.00698959 -0.00310216 
287 2 61.2145 10.9033 21.0483 -0.00366708 -0.0186249 0.0323197 
317 2 77.6893 -10.5971 16.2986 0.0261905 0.0492386 0.0358663 
314 2 75.7967 -10.2223 14.567 -0.0344183 0.00659108 -0.0195235 
309 1 79.5655 -11.6636 13.9951 -0.0103739 0.00631813 0.000821007 