ITEM: TIMESTEP
510000
ITEM: NUMBER OF ATOMS
576
ITEM: BOX BOUNDS pp pp pp
-1.2000000000000000e+01 8.4000000000000000e+01
-1.2000000000000000e+01 3.6000000000000000e+01
-1.2000000000000000e+01 3.6000000000000000e+01
ITEM: ATOMS id type x y z vx vy vz 
438 1 -5.69011 -5.40201 -0.381778 0.0324142 -0.00420641 -0.0111409 
387 2 8.38754 -11.5845 11.6789 0.149254 0.0779791 0.0705128 
283 2 3.98331 -8.3227 -9.88168 -0.0653462 -0.100416 -0.0291391 
446 1 -7.5671 -0.708776 -0.579584 0.0067993 -0.0190141 0.0125081 
467 2 -2.63957 -7.70214 -0.344877 -0.0396703 0.0464496 0.037736 
455 1 -3.55779 -7.09193 -0.6044 -0.0111039 -0.00751552 -0.00730483 
445 1 -6.61698 -1.32343 -2.86807 0.0167955 0.0153472 0.00835058 
433 1 -6.52889 -2.74429 -0.986458 -0.0328808 0.0103434 -0.00230845 
439 1 -7.07667 -1.55822 -1.47898 -0.00175447 -0.0172671 -0.0158475 
442 1 -3.76285 -4.79713 -1.95009 -0.000167387 -0.0137945 0.010757 
463 2 -2.26311 -4.44042 -3.46748 0.125233 -0.0774404 0.0057538 
451 1 -3.01977 -4.12611 -2.98582 -0.0109766 -0.0196665 -0.0078097 
448 1 -3.38741 -2.80168 -2.72196 -0.0185814 -0.00181547 -0.0283626 
452 1 -3.43797 -6.16776 -1.3737 -0.0146125 -0.00148232 0.0192518 
436 1 -4.77244 -4.40784 -1.03926 0.00975512 -0.0267271 -0.0218676 
434 1 -5.33392 -3.25489 -1.51138 0.00466648 0.00600985 0.0177986 
440 1 -4.73387 -2.46099 -2.44774 0.0188467 -0.00625585 -0.022625 
460 2 -2.73579 -2.15162 -3.28108 0.00583566 0.0868095 -0.0433832 
459 2 -4.78111 -1.14448 -3.84127 -0.0774213 -0.0138146 0.0512861 
447 1 -5.20475 -1.20378 -3.0552 -0.00338822 -0.00524098 0.000362675 
457 2 -7.41902 -1.08455 -3.62798 0.0728271 0.0562457 -0.0309838 
458 2 -7.72724 0.361546 -0.93627 -0.0181786 -0.0867932 -0.032972 
466 2 -6.36973 -6.23109 3.28801 -0.0242762 -0.0442598 0.032101 
454 1 -6.11075 -6.05852 2.23226 0.0292675 0.000478897 -0.0222018 
468 2 -4.88387 -7.60447 1.49403 0.0450487 0.0774465 0.0409184 
456 1 -5.22181 -6.7454 1.28455 -0.011557 -0.000773788 0.0173143 
444 1 -5.00661 -6.67455 -0.108072 -0.0183488 -0.00668151 0.00650797 
443 1 -7.15021 -5.4139 1.56525 -0.0217172 0.012377 0.00795599 
453 1 -8.25474 -4.55199 2.18544 0.00790007 -0.0268847 -0.0288544 
437 1 -6.69513 -4.72396 0.138847 0.0422949 0.00552327 0.00808352 
465 2 -8.59304 -4.8387 3.2237 -0.0582406 -0.0328421 -0.145879 
441 1 -7.50921 -2.34976 0.868829 0.0133423 -0.0190105 -0.0208656 
435 1 -7.27809 -3.39211 -0.152616 -0.00458255 -0.00224772 -0.0170785 
450 1 -8.04571 -3.13289 2.09686 0.00746038 0.0288727 -0.00466855 
462 2 -8.36278 -2.81818 3.14151 -0.0270608 0.0111275 -0.0648444 
449 1 -8.14559 -1.18423 0.63592 -0.0215505 -0.000881316 0.00999922 
461 2 -8.86962 -0.584694 1.2643 -0.0603544 -0.0460532 0.00877241 
369 1 5.12436 -9.33488 16.0142 -0.00479629 0.0110798 -0.017436 
365 1 4.47077 -11.7677 16.3342 -0.00931876 -0.0032424 0.0134485 
371 1 3.53869 -11.3892 17.3444 -0.0174571 -0.0399013 -0.000237842 
363 1 4.9505 -10.5956 15.3875 0.0242911 -0.0266391 0.0223044 
381 1 3.32309 -9.97159 17.4178 0.0128342 -0.00769611 -0.0203314 
378 1 3.97089 -8.83158 16.8796 -0.0185872 -0.00702824 -0.00420348 
495 2 4.09815 -7.95317 17.3404 -0.0599242 0.121923 0.0207845 
361 1 5.57 -10.6596 14.2029 -0.00695913 -0.00517986 0.00158154 
377 1 5.82132 -8.3379 15.205 0.0210512 0.0074139 -0.0186119 
389 2 5.52184 -7.18579 15.3196 0.0294346 -0.00813768 0.0167084 
413 1 0.701926 7.32888 24.7877 0.00971943 0.0242571 -0.00843328 
367 1 6.70377 -9.79398 13.6441 0.0200488 0.0293591 -0.0178644 
374 1 6.53912 -8.42498 14.0508 0.0134347 -0.0395957 -0.00239933 
386 2 7.34141 -7.69489 13.8368 -0.0354023 0.115817 -0.0177648 
373 1 6.8203 -9.92476 12.1869 -0.0130825 0.0322241 0.00289261 
33 2 11.53 -7.78407 18.3687 -0.011344 -0.0157247 -0.0525921 
405 1 0.88742 7.16062 23.3288 -0.00672957 -0.000165202 0.00200793 
425 2 0.332645 8.38712 24.8857 -0.021169 -0.0295406 0.0360806 
430 2 -1.97191 3.34661 19.3027 0.00462717 0.0562003 -0.0749098 
393 2 3.69236 -9.73425 18.564 -0.0127858 -0.0587079 0.0104915 
22 1 11.4575 -8.00582 21.2039 0.00558619 0.010753 0.0161846 
24 1 11.1805 -8.85348 22.258 0.00711348 0.00165879 0.0268187 
34 2 10.8767 -6.92751 20.9812 -0.085459 -0.0573492 -0.0418071 
36 2 10.3075 -8.55046 22.7945 -0.0188798 -0.118403 0.00848992 
87 1 9.06534 -11.5898 16.3717 0.00089307 -0.0016701 0.00942774 
427 2 1.57328 -0.682807 23.6933 -0.116314 -0.0597234 0.11424 
418 1 -2.25507 4.28109 19.9808 0.0182733 0.015916 0.0285981 
432 2 -3.1176 5.03512 20.6333 0.0504504 0.0164209 -0.0173983 
431 2 -1.51189 1.40213 20.2485 0.021515 0.0181529 0.112967 
420 1 -0.71488 4.32944 20.1076 -0.0203486 -0.0250538 -0.0197006 
429 2 1.07806 6.11303 19.6199 0.0532932 0.0272169 -0.0640748 
408 1 0.0489597 3.24113 20.8873 -0.0125267 0.0134271 0.0147534 
419 1 -0.549385 1.79561 20.8643 -0.0120286 0.0157336 -0.0149461 
428 2 -0.0486804 0.0431604 22.479 0.0434145 -0.000280369 -0.0598062 
416 1 0.0557112 0.933867 21.8937 -0.00405429 -0.0092137 -0.0135709 
406 1 1.25684 1.24906 22.5838 -0.00287967 -0.0227041 -0.0196981 
400 1 1.32671 2.82263 22.571 -0.0165634 0.0115576 -0.0047221 
402 1 0.784332 3.90688 21.7904 -0.00866695 0.00775979 -0.00593526 
415 1 1.79491 0.493635 23.707 -0.0177966 -0.0164239 0.0115733 
401 1 1.0382 5.2508 21.8889 -0.0044731 -0.0020312 0.0277188 
399 1 1.20954 5.82181 23.1076 -0.00127014 0.00858274 0.0198752 
414 1 1.3591 8.15362 22.4254 -0.0205989 -0.0335074 -0.0410552 
407 1 1.25598 6.27659 20.7551 0.0116818 -0.0175717 -0.0133026 
426 2 1.32734 9.1014 23.2061 0.046979 -0.0308126 0.0448625 
417 1 1.92846 7.428 21.3494 -0.0175678 -0.0138892 -0.0102557 
35 2 11.3409 -10.3628 25.0304 -0.0108978 -0.0142154 0.0765933 
375 1 7.33119 -11.34 12.1111 -0.0110591 -0.0205723 0.0139639 
404 1 1.65234 2.4996 25.0311 0.00542151 -0.00375568 -0.00780941 
398 1 1.63519 3.37928 23.8624 -0.00506305 -0.022594 -0.0169675 
403 1 1.75988 5.39194 25.4254 0.00545314 0.0286205 -0.00301621 
397 1 1.39412 4.83824 23.9835 -9.22329e-05 0.00981806 -0.0144486 
412 1 1.70095 0.90455 25.0053 0.00856161 -0.000348207 0.00604801 
424 2 2.22783 0.591202 25.8374 -0.00360627 -0.089361 0.0184664 
411 1 2.0985 2.70144 26.4798 -0.0209251 0.00948095 0.00143501 
423 2 2.14032 1.85627 27.2304 0.00719178 0.0783363 -0.0727478 
409 1 1.93483 4.14629 26.3225 -0.022502 0.006742 -0.00415436 
410 1 0.784072 6.45299 25.8509 -0.0401319 -0.0156419 0.00313537 
422 2 0.921693 6.52993 26.948 0.0499644 0.0405432 0.0528422 
100 2 6.89402 -11.9441 16.1991 0.0800062 0.0425786 -0.0770937 
390 2 1.48548 -11.7656 18.4271 0.0569818 0.0519328 0.0119046 
385 2 5.52439 -9.75565 12.2163 -0.0428278 -0.0364051 0.00410014 
537 2 -2.17165 13.0272 -2.76545 0.00123346 0.0406484 -0.0135025 
540 2 -2.12224 13.4782 -3.07501 0.0498563 -0.014338 0.0789359 
221 1 -9.48174 17.9582 16.9637 -0.0266556 0.0139512 0.0173641 
222 1 -9.24518 16.5417 16.4987 -0.0192996 0.00685749 -0.00402872 
217 1 -11.7381 17.5838 16.271 -0.0311381 0.00858966 -0.00977921 
228 1 -7.91417 16.0714 16.3464 0.018669 -0.00452682 -0.00405166 
218 1 -11.1606 16.601 15.4205 -0.0206328 -0.0131638 0.0332958 
220 1 -9.9355 15.5976 15.6378 0.00531725 -0.0183602 0.0366489 
239 1 -7.48098 14.8452 15.8602 0.0188936 0.00152708 0.00837464 
226 1 -9.6878 14.7734 14.6167 0.0113173 0.00878701 0.00183074 
236 1 -8.21016 14.7007 14.5711 -0.0238817 -0.00113105 -0.00378802 
376 1 6.85941 34.1255 12.7962 0.0169787 -0.00402298 0.0141352 
251 2 -7.77191 14.3979 13.6342 0.0104578 0.0296475 0.0245383 
235 1 -10.7796 14.2692 13.5637 -0.00574872 0.0153469 -0.0142099 
240 1 -7.04675 16.7156 17.1017 -0.00714437 0.00771447 -0.0240012 
252 2 -5.85636 16.4251 17.5697 0.0569387 -0.0347966 0.0212501 
247 2 -10.5699 13.3462 12.904 0.0276434 0.0266854 0.0219245 
362 1 5.69151 35.9249 13.8525 0.00146277 0.0152381 0.0142501 
248 2 -6.62003 14.3086 15.9523 -0.0496427 0.0487844 -0.0525379 
219 1 -10.8869 18.2397 17.2135 -0.00269807 0.00329316 -0.000463298 
227 1 -8.60387 18.7471 17.6616 -0.0175238 -0.00103592 1.13745e-05 
225 1 -11.3917 19.3477 17.864 -0.00389264 -0.0242984 -0.011151 
234 1 -10.4226 20.3495 18.2182 -0.025365 0.0428961 0.0196503 
246 2 -10.5784 21.5595 18.018 -0.0408988 0.125145 0.0808671 
370 1 5.19898 33.4221 14.547 -0.002637 0.0245035 -0.00841456 
384 1 2.58619 34.3429 17.6459 -0.0198492 -0.00884627 -0.0162319 
105 2 5.16525 33.6486 31.0531 -0.0395466 -0.0462256 0.0077661 
372 1 3.50652 34.1013 16.4453 0.0118287 -0.00404683 -0.0232268 
395 2 2.83858 31.8928 16.7402 0.0729355 0.0414468 0.092071 
366 1 4.5613 34.9575 15.8472 -0.0280382 0.0208877 0.0243163 
383 1 3.45979 32.6624 16.0188 -0.00616994 0.0196199 0.0221916 
364 1 5.12758 35.0253 14.5864 0.0101851 -0.0129266 0.0065466 
380 1 4.66971 32.3476 15.2873 -0.0139413 -0.013117 -0.00505656 
392 2 5.03136 31.4144 15.167 -0.0421982 -0.0572939 -0.0846794 
379 1 5.99368 33.0833 13.4103 0.00814535 0.00928629 0.00909965 
396 2 1.89451 33.5499 18.1333 -0.0799319 -0.060368 0.0320305 
391 2 5.32944 32.364 12.7651 0.0131283 -0.0400502 0.0188516 
85 1 9.02332 35.0633 16.7486 0.0149099 0.00371634 -0.0026415 
95 1 0.4719 25.1878 25.3199 -0.0143834 -0.0177289 -0.0140828 
80 1 7.99486 35.8539 15.9684 0.0140545 0.00931249 0.000162574 
99 2 8.52445 34.7439 17.6554 -0.0413647 0.00726265 0.126122 
368 1 6.65794 35.495 12.8131 -0.0440919 0.00941877 0.00136123 
238 1 -7.45979 17.9514 17.5781 -0.00862328 -0.00543226 -0.0161088 
250 2 -6.51371 18.0319 18.1622 0.0662374 0.0319314 -0.0425919 
237 1 -9.11496 20.1101 18.5353 0.0171531 -0.0316718 -0.0146969 
249 2 -8.19386 20.4502 19.0578 -0.0439031 0.00247942 -0.0754391 
93 1 -2.36731 22.9907 20.5227 -0.00151373 -0.00339674 0.0205415 
90 1 -3.08834 24.181 19.8551 -0.000279714 -0.00564349 0.00399144 
102 2 -3.95261 23.4691 19.488 0.0178983 0.00938084 -0.0486705 
83 1 -1.14388 23.6135 21.2441 0.000484822 0.025717 -0.00476657 
94 1 0.0351351 23.1495 22.0059 0.0173766 0.0299231 -0.0223274 
98 2 -4.46814 28.3271 19.2304 -0.108473 0.0171528 0.132709 
89 1 -3.02541 26.6416 19.1969 -0.01905 0.0263891 -0.0103044 
81 1 -2.99472 25.4999 20.177 -0.0584175 0.00686665 -0.00648242 
101 2 -3.58468 26.604 18.2339 0.0329373 -0.046971 0.1101 
86 1 -4.02619 27.5101 19.8854 0.00329868 0.035949 -0.00967933 
97 2 -3.35307 28.9858 21.4187 -0.0370389 0.0571656 -0.00886669 
79 1 -3.07267 28.0346 20.8846 -0.0173293 -0.0126097 -0.00369974 
75 1 -1.9677 26.0005 21.1596 -0.016868 0.00820441 -0.00312617 
73 1 -2.4071 27.3312 21.8873 0.010534 -0.033737 -0.00795901 
77 1 -1.24214 25.0546 21.947 -0.00184251 -0.00735962 -0.00668771 
74 1 -1.2554 28.1083 22.5635 -0.0190828 0.00274026 0.0158331 
355 2 -1.09967 29.117 22.5687 -0.0276341 0.0240601 0.045256 
88 1 1.86082 29.3531 23.34 0.000358923 0.00816409 0.0232707 
78 1 -0.655847 25.7466 23.0196 -0.00260451 -0.0128164 0.00979352 
76 1 -0.374748 27.2654 23.4913 0.0150719 -0.00381919 0.0141033 
91 1 1.53984 28.4753 23.8703 -0.00746055 0.000865255 -0.0261639 
92 1 1.08291 26.4395 25.483 -0.0132093 0.0193611 0.00474727 
103 2 2.57689 29.8265 22.5255 0.0277998 -0.0283114 -0.00173169 
106 2 1.85305 23.4597 23.372 0.00495104 0.0956748 -0.00710985 
96 1 0.658362 23.7377 23.1184 -0.00357021 -0.02522 0.00359924 
104 2 2.01999 26.4539 25.9895 -0.0382339 -0.0657772 -0.11302 
84 1 -0.0942533 24.9329 24.0108 -0.0192664 0.00300003 -0.00559354 
82 1 0.642223 27.4289 24.4672 0.00660169 -0.0206497 -0.00284779 
107 2 0.196427 24.2757 25.869 -0.00322391 -0.0354826 0.0221091 
232 1 -11.9287 14.6159 13.4824 0.00954996 0.00737055 -0.0139606 
382 1 2.43915 35.6867 17.8364 0.0297938 -0.00352145 0.0166669 
388 2 7.91933 33.8184 12.0954 0.0286577 -0.151927 0.0531126 
139 2 22.6955 -5.77402 -10.8087 0.0453253 -0.0709526 0.0935973 
143 2 23.0262 -3.83328 -11.9035 0.0851583 0.0489324 -0.0545196 
177 2 23.5481 -7.85929 -10.1547 -0.122486 0.054506 -0.0126197 
539 2 24.9781 -8.91047 2.48362 -0.0819519 -0.0049255 0.0169556 
179 2 24.2834 -9.22726 3.07894 -0.0644525 0.0344043 0.0398866 
127 1 23.9148 -7.45304 -11.294 -0.0101974 0.00281542 -0.00418757 
118 1 23.051 -6.30715 -11.7055 -0.00330434 -0.00599088 -0.00936216 
140 2 21.7294 -2.13385 -10.1676 0.0376058 -0.0727701 0.0378539 
128 1 21.2383 -2.6005 -11.1217 0.0236761 -0.022374 0.0151201 
136 2 24.6999 -9.2729 -11.6488 -0.0870754 -0.048922 0.0250727 
131 1 22.0403 -3.42021 -11.9427 -0.00265373 -0.00487692 0.0276233 
30 2 13.9801 -8.06054 17.1297 -0.0152027 -0.0174891 0.0299761 
29 2 16.3034 -6.99872 17.7605 0.0110627 0.0465963 0.0617138 
488 1 35.8428 9.22984 29.1845 -0.00232202 0.0038754 -0.0342767 
18 1 13.7479 -8.12927 18.4112 0.0188447 0.00299456 0.0211943 
9 1 15.0598 -8.09821 19.2292 0.0111937 -0.024438 0.00647041 
17 1 16.3273 -7.62187 18.6088 0.00998321 0.0110646 0.0369548 
3 1 14.956 -8.63631 20.3976 0.0246803 -0.0171379 -0.0220213 
1 1 16.1736 -8.35913 21.2716 0.0323647 -0.0241408 -0.00411955 
7 1 17.132 -7.62252 20.7555 -0.0223166 -0.00473092 -0.0254236 
14 1 17.4569 -7.04252 19.335 -0.0100602 -0.00112211 -0.00823951 
2 1 15.9528 -8.99994 22.5831 -0.022555 -0.00451993 0.0107469 
13 1 18.4021 -7.78835 21.4874 0.0032325 -0.0124038 -0.0226395 
21 1 12.4593 -8.146 18.9451 0.00301666 0.00765276 -0.00987504 
5 1 13.6913 -9.03327 20.895 0.00492598 0.0116284 0.000221674 
4 1 14.6597 -9.74374 23.0678 0.00367597 0.0239558 0.0246756 
11 1 12.4394 -8.58369 20.3118 -0.0325698 0.0567238 0.0170652 
6 1 13.6368 -9.70879 22.2043 -0.00715149 0.0375185 -0.0359478 
15 1 17.9256 -8.25475 22.6466 -0.00630422 -0.0286041 0.00203139 
8 1 16.9453 -8.76025 23.5433 -0.00702273 0.0163582 -0.00920072 
25 2 19.4555 -7.72957 21.9462 -0.119722 0.0226413 0.00795803 
26 2 18.3522 -6.99173 19.1815 0.0705676 -0.106684 0.0664141 
27 2 17.0516 -8.71658 24.716 0.00853975 -0.0686499 0.00129283 
20 1 13.4688 -10.3444 25.1603 -0.019428 0.0304867 -0.0381105 
10 1 14.7212 -10.1764 24.4222 0.0104591 0.00285645 -0.00690014 
32 2 13.1826 -10.6819 26.1871 0.0357884 -0.0437741 -0.0132551 
12 1 12.2874 -9.70698 22.8173 -0.0128943 0.0297749 0.00119861 
124 1 24.7455 -8.1738 35.9777 -0.0152286 -0.00066966 -0.00906542 
137 2 23.1125 -6.71647 29.1957 0.00695832 -0.00434833 -0.0418761 
125 1 23.3119 -6.85874 30.2639 0.00625102 -0.00179601 -0.0033882 
134 2 25.3971 -7.67124 29.823 -0.00905235 -0.0761661 0.0556156 
122 1 24.5292 -7.3951 30.4489 -0.00275448 -0.0282458 0.00595407 
138 2 20.3181 -6.09874 29.7229 -0.0202802 -0.033352 -0.0516863 
126 1 20.8975 -5.57056 30.4668 -0.0175635 0.00473621 -0.00298062 
141 2 20.2001 -3.27807 30.0705 -0.0214657 -0.0521267 0.0935717 
502 2 34.3102 1.83969 28.4069 -0.0018474 -0.00873113 0.012038 
486 1 34.3168 -0.781727 26.353 0.0115941 -0.0227778 0.00230921 
489 1 34.6834 0.477401 26.7227 0.00580142 -0.00250601 0.00482281 
490 1 35.3733 2.8171 26.6468 -0.015827 -0.00354648 -0.00398551 
492 1 34.8783 1.60315 27.3239 -0.00664115 -4.37389e-05 -0.0488422 
503 2 35.2395 4.71455 23.9963 -0.00460839 -0.0412829 0.00262497 
477 1 35.3377 8.9594 27.973 -0.0119915 0.00251598 -0.0148474 
475 1 34.8449 8.01058 25.2735 0.031301 0.0369472 -0.0036848 
494 2 33.0168 8.6828 25.3892 0.0019752 -0.0182627 -0.00600979 
482 1 34.0396 9.35398 25.4394 -0.0221104 0.0192235 -0.000880864 
485 1 34.8256 9.78423 26.5801 0.00871906 0.00659692 0.00603101 
498 2 35.3906 10.7525 26.4538 0.0955559 -0.0169923 -0.0717738 
108 2 34.5893 7.14819 24.836 -0.00880086 0.0503954 -0.027278 
110 1 23.9572 -6.88457 34.2523 -0.00265092 0.0227154 0.00218775 
117 1 22.1497 -6.06479 30.9501 0.0190214 0.0257198 0.0346381 
111 1 22.4006 -6.26755 32.3863 0.0219033 -0.00742641 0.00857297 
109 1 23.5827 -7.0032 32.7776 0.000249303 -0.00342901 0.00592899 
112 1 22.9317 -6.20552 35.0466 -0.0129264 -0.00604588 0.0161283 
23 1 12.3187 -10.2981 24.2129 0.0233661 -0.00633214 0.000523594 
121 1 26.1013 -7.34638 32.6187 0.0259185 0.00243556 0.0104979 
115 1 24.7321 -7.34688 31.9623 0.0110022 -0.0161158 0.00801098 
133 2 27.4269 -7.31048 34.631 0.0544113 -0.0895018 0.137737 
123 1 26.5208 -7.47974 33.9194 0.00767732 -0.00724053 0.0102103 
116 1 25.1874 -7.5111 34.6461 -0.015735 7.20499e-05 0.0147629 
19 1 15.6363 -11.4805 24.632 0.0186562 -0.00631773 -0.0130942 
129 1 20.4603 -4.11833 30.8126 -0.0195007 -0.0264248 0.0255531 
471 1 35.8418 7.68323 27.5129 -0.00599506 0.0040433 -0.0203393 
120 1 21.2149 -4.11955 34.9761 -0.0256491 0.0210559 -0.00173813 
119 1 20.9894 -4.05472 32.18 -0.00450681 -0.00555043 0.0112146 
142 2 19.4181 -2.31962 32.5908 0.0323967 0.0127993 0.0354208 
130 1 20.3496 -3.04078 33.0071 0.00317936 -0.00686662 0.0208103 
113 1 21.7091 -5.38684 33.0908 -0.0148234 -0.00822779 0.0241407 
132 1 20.2955 -3.20105 34.2299 -0.0200026 0.0163559 -0.00835142 
114 1 21.8573 -5.27169 34.3383 0.0118406 -0.00495025 -0.00120113 
144 2 19.3926 -2.76446 34.6821 0.0942979 0.0219222 0.187464 
501 2 35.9278 9.3984 31.2357 -0.00116855 0.0646148 -0.0653338 
499 2 35.9169 6.27788 22.5588 0.0463142 0.0627404 -0.00129287 
71 2 27.1512 18.2943 7.2783 0.0700589 -0.0531081 -0.0894666 
504 2 27.2375 17.6496 7.70025 -0.0220237 0.00237238 0.0306472 
16 1 15.2929 35.4682 25.3428 0.0147932 0.0220342 -0.0172164 
28 2 15.1076 34.7382 24.1713 0.0833667 0.0472956 -0.0263127 
31 2 15.2229 34.9235 26.3607 -0.0871091 -0.0129587 -0.00969274 
469 1 36.1076 7.95107 26.0676 -0.00409987 0.00940343 0.000457102 
421 2 46.9679 -4.1777 32.7581 0.031235 0.091662 0.0872774 
487 1 36.599 6.10791 23.2333 -0.0188688 -0.00893904 -0.0385252 
493 2 40.6986 8.38732 25.0858 0.0857115 -0.0322818 -0.00977366 
481 1 39.7717 8.98164 24.9829 -0.0118848 0.0239258 0.0265067 
484 1 37.8719 6.83833 23.6384 -0.00941597 0.000549849 0.00859702 
500 2 37.4684 10.1554 30.2266 0.0377575 -0.0401477 -0.084637 
474 1 37.3289 5.42401 27.9339 0.00122639 0.0226726 -0.00862882 
472 1 36.9033 5.54938 25.5094 -0.0120942 0.0135333 0.00383944 
473 1 36.8704 4.66881 26.7819 0.0205283 -0.0100553 -0.00552498 
491 1 36.4816 9.58538 30.3562 -0.00388212 -0.00240935 0.0105245 
480 1 36.3588 3.40277 26.6012 0.00650766 0.0181389 0.00852908 
479 1 36.2665 6.40001 28.0922 0.0148821 0.0116479 -0.00591108 
470 1 37.0971 6.99846 25.6574 0.0023187 0.00420172 -0.017919 
496 2 37.9725 10.1142 24.12 -0.00894191 -0.04938 0.0586784 
476 1 38.1279 7.56673 24.8679 0.0115286 -0.00648419 0.00702394 
483 1 38.4968 9.07312 24.6434 -0.00339344 0.000713591 0.0261512 
497 2 37.9433 5.05682 29.0563 0.0227462 0.0909064 -0.0314215 
562 1 46.3176 11.5222 35.2988 0.00521523 -0.00678674 -0.0219687 
574 2 46.9422 10.7504 35.6702 -0.0187777 -0.016263 0.0859567 
564 1 46.8471 11.9681 34.0116 -8.50964e-05 -0.00557306 -0.0181406 
576 2 47.7608 11.3052 33.5427 0.0637817 0.0554864 -0.0233927 
478 1 36.023 5.33282 24.4397 0.0207985 -0.0267818 0.0161578 
566 2 40.8203 14.9903 -10.9682 0.0337369 -0.0362581 0.109521 
464 2 56.6744 12.667 1.10735 -0.0437161 -0.00208611 -0.0493349 
558 1 43.4906 13.772 -11.1218 -0.00725795 0.0254065 0.00262251 
264 1 59.8085 20.3089 6.2437 0.0176981 -0.0277738 -0.0188936 
570 2 43.3033 14.3267 -10.2647 -0.00189979 0.0663326 0.0406253 
561 1 44.4495 12.7047 -11.1555 -0.0103449 0.0333323 -0.0226104 
272 1 59.0692 21.1309 8.49031 -0.00861863 -0.0130821 0.0457296 
66 2 55.3797 18.2682 -10.3545 -0.0202049 -0.00711759 -0.028772 
57 1 55.191 17.9382 -9.42336 -0.00339859 0.00931663 0.000684664 
58 1 55.8741 15.8433 -9.20536 0.0296362 0.0107973 0.000994337 
47 1 56.1857 17.1669 -8.59745 0.0100838 0.00383965 -0.0208382 
41 1 56.5163 17.5471 -7.22245 0.0139084 0.0261059 0.0168092 
42 1 56.7005 16.1284 -6.81118 0.0313754 -0.00669535 0.0317725 
39 1 55.4263 18.2136 -6.58507 0.00262361 0.0359201 0.0281024 
48 1 57.3774 15.0768 -7.60021 -0.0270221 0.0324792 -0.00283021 
60 1 56.5376 14.5866 -8.65715 -0.00445642 0.00668691 -0.0168258 
70 2 56.3585 13.4838 -9.1638 -0.0919531 0.0234923 -0.0202906 
56 1 58.4797 14.1293 -7.15366 0.0134871 0.00773458 -0.0292148 
72 2 58.6729 13.1805 -7.68473 0.00674152 -0.0985784 0.0517742 
50 1 53.0419 18.542 -6.31396 0.0368302 -0.0094641 0.0153267 
53 1 52.1868 17.8791 -7.38864 0.00351067 -0.011607 -0.0174441 
65 2 50.9817 18.1668 -7.32044 0.0107631 -0.135353 -0.0174877 
45 1 54.2733 18.815 -7.24475 -0.0389655 0.0132561 0.00532236 
62 2 53.7443 20.0182 -7.19352 -0.0061702 -0.0455081 -0.0363474 
54 1 54.1668 18.622 -8.72318 -0.00845132 -0.000453632 0.0046158 
69 2 53.5439 19.4534 -9.50261 -0.0129331 0.0453415 0.010439 
51 1 53.6808 16.2352 -3.39316 0.00285463 -0.0158685 0.0264097 
61 2 52.0171 17.6503 -3.73945 -0.0162497 -0.000609107 0.0385687 
49 1 53.1058 17.4688 -3.87604 0.00699852 -0.00541093 0.00132461 
43 1 53.6594 17.6834 -5.24517 -0.0247925 0.0292304 0.0150051 
37 1 55.047 17.7221 -5.35505 -0.00464568 0.0018075 -0.0152277 
38 1 55.7727 16.9301 -4.44698 -0.00207202 0.00254455 -0.0244597 
44 1 55.1808 16.2379 -3.44763 0.00699885 -0.021474 0.0040024 
68 2 57.2062 12.5769 -6.03724 -0.0544539 -0.0751033 -0.0117887 
59 1 57.8359 13.4594 -5.92126 0.0116385 -0.0231876 -0.0214216 
46 1 57.0245 14.6389 -5.06964 0.00581323 0.00613418 0.0195335 
67 2 58.4049 13.3985 -5.14704 0.067108 -0.0184838 -0.047937 
40 1 56.7053 15.9602 -5.18435 0.009257 0.00413667 0.0102985 
52 1 55.6257 14.9131 -2.83938 -0.00939373 0.00546296 -0.00408918 
55 1 56.4318 14.2854 -3.87544 -0.000642707 0.00130238 0.0100882 
64 2 56.121 14.8751 -1.94524 -0.129728 -0.0957732 -0.107805 
63 2 53.2405 15.6406 -2.87243 -0.0113592 -0.00873056 -0.00335828 
275 1 58.6492 20.8681 7.1474 0.0246008 -0.00772549 0.0155577 
288 2 59.161 20.419 4.02499 -0.045154 0.0623103 -0.0551653 
276 1 59.9279 20.0057 4.83919 -0.0272625 -0.005379 0.000548473 
287 2 57.8011 20.8226 6.44301 0.0299783 0.0508806 0.06681 
284 2 58.1668 21.553 8.79119 0.0180687 0.0439863 0.0663335 
573 2 44.555 12.6112 -9.97796 0.0156978 -0.0859652 0.0526327 
557 1 41.1054 14.3178 -11.7957 0.0261558 0.0201571 -0.00465199 
176 2 50.1277 21.4826 20.178 0.0382262 0.0643016 0.0275703 
568 2 42.1799 15.4129 29.3301 0.0136837 0.0185404 -0.0819794 
571 2 44.1203 13.8443 28.9127 0.112206 -0.0408767 -0.0354049 
559 1 44.1215 14.2704 29.8126 0.00609687 0.0382852 -0.0267469 
572 2 46.8955 12.8877 29.5377 -0.0574571 -0.0752788 0.00997176 
347 1 46.1987 20.5712 28.4971 -0.000124885 0.00659916 0.00675004 
359 2 46.5134 19.7718 28.0302 -0.0291483 0.0740177 -0.164193 
336 1 47.2862 21.2957 29.0657 0.00678234 -0.00897776 -0.0275172 
334 1 44.9038 22.2631 29.8287 -0.00193337 -0.00251896 -0.00203293 
330 1 46.9398 22.6462 29.524 0.0165813 -0.0235306 0.00638409 
343 1 43.7249 22.8127 30.5915 -0.0158556 -0.0204787 0.0045657 
328 1 45.8232 23.0943 29.8738 0.00561854 -0.014425 -0.00443054 
360 2 48.8136 19.5277 28.9026 -0.0404241 0.0696634 0.0394319 
348 1 48.6153 20.5761 29.1835 -0.012491 -0.0107795 0.0102717 
346 1 49.6741 21.5473 29.1646 -0.0248204 0.00148755 0.0205061 
358 2 50.8391 21.3072 29.1496 -0.0161434 -0.0457044 0.0286697 
335 1 49.1321 22.9019 28.8775 -0.0147944 -0.00529587 -0.00429485 
340 1 42.9699 24.0057 30.5062 0.00514483 -0.0308743 0.00580727 
352 2 42.5522 24.4881 29.644 0.0409732 -0.0563602 0.0339908 
332 1 44.1269 25.0302 30.2195 -0.00440878 -0.0045965 -0.0146375 
339 1 43.979 26.5671 29.8968 -0.00765868 0.00325381 0.00461989 
351 2 42.901 27.0115 30.2412 0.052174 0.0592848 -0.0677665 
326 1 45.6045 24.5859 29.8603 0.0149076 -0.0295317 0.00634122 
329 1 47.8857 23.7805 29.4228 -0.00481431 0.00379629 -0.0119639 
216 2 51.4571 23.7627 28.7053 0.0320191 0.00269484 0.0759044 
345 1 50.2277 23.7568 29.134 -0.00517435 -0.00725755 0.0193693 
342 1 50.4184 25.1743 29.4886 0.0016368 -0.0064137 -0.0092746 
354 2 51.2972 25.6597 30.176 0.0682562 0.0155567 0.0753187 
353 2 49.5498 27.9963 30.4167 0.0426213 -0.0142594 -0.00542957 
547 1 41.053 14.7255 33.5222 0.00868253 -0.00631626 0.0174521 
541 1 42.3671 13.9378 33.5103 -0.00509204 -0.0233296 0.000455398 
554 1 40.6559 15.034 34.9824 0.017046 0.0271178 0.0117496 
569 2 40.5228 15.0483 32.6325 0.0312694 0.0284437 0.0224765 
567 2 39.816 17.7919 31.5965 0.069989 0.00142849 -0.03477 
357 2 59.1926 26.0098 20.7173 0.0583946 -0.115683 -0.00655715 
556 1 42.9125 15.0629 30.0679 0.0170942 -0.00235963 0.0124196 
551 1 45.3299 12.5053 35.6651 0.0192637 0.00918159 -0.0128514 
542 1 43.2242 14.3615 32.5441 0.00840552 -0.0114929 -0.0187162 
548 1 42.5273 15.2209 31.4084 0.00340733 0.0158014 0.00430277 
543 1 43.3631 13.5533 34.5312 -0.0263663 -0.00759853 0.0241771 
555 1 41.5013 16.2958 31.6507 -0.016539 -0.0113802 0.00293709 
553 1 40.6516 17.3747 31.0944 -0.0222404 -0.0110983 -0.0083 
545 1 44.669 13.149 34.3663 -0.012702 -0.0038058 0.00851187 
563 1 47.1323 12.9012 31.6313 0.0179498 -0.0063863 0.00735291 
544 1 44.53 13.699 32.2571 0.0391019 0.0433839 0.0290012 
560 1 46.5106 13.4551 30.5264 0.00431267 -0.00748491 -0.0202738 
550 1 45.0373 13.8417 30.9653 -0.0116598 0.0012186 0.0156855 
546 1 45.3272 13.4595 33.2877 0.023107 0.00166033 -0.0183249 
552 1 46.6316 12.7916 33.0451 0.00257552 -0.0246725 -0.0243025 
549 1 42.3934 13.4455 35.9623 -0.0159663 -0.0225428 -0.00372131 
575 2 48.1148 12.2335 31.7765 0.124427 -0.0087418 -0.119839 
344 1 45.0898 21.3016 28.7243 -0.0447056 -0.0146779 0.0170562 
565 2 40.8811 17.8485 30.0802 0.065346 0.0376098 0.0111448 
356 2 44.0205 20.908 28.5901 0.0278191 0.0893751 -0.0980454 
349 2 44.6644 28.2694 29.6982 -0.0698524 0.0176018 0.0485299 
337 1 45.0799 27.2121 29.5199 0.0060445 0.0110961 0.00450478 
325 1 46.5856 25.3597 29.7197 0.0102232 4.9148e-05 -0.0103729 
331 1 46.6185 26.8155 29.6597 -0.0342731 -0.0059627 0.00391426 
327 1 48.042 25.045 29.7755 0.0127296 -0.00825324 0.00121786 
341 1 48.8032 27.3558 29.8004 0.0020829 -0.0191073 -0.0306834 
350 2 47.3795 28.7977 30.2452 0.0280055 -0.0351582 0.0491059 
338 1 47.5298 27.9589 29.7943 -0.0223053 -0.00639051 -0.024819 
333 1 49.1982 25.9977 29.5834 -0.00453266 0.0290238 -0.0108727 
532 2 75.5891 -11.4964 30.3919 0.00931065 -0.104017 -0.00291859 
531 2 77.7957 -11.55 31.2318 -0.0831309 -0.0129519 0.0107915 
519 1 77.078 -11.9957 32.013 0.0277891 -0.0170596 0.0296091 
529 2 78.4588 -11.4587 33.8123 0.0303848 0.0184923 0.0234825 
135 2 83.5665 -1.60452 35.4981 0.0457848 -0.0156773 0.00642848 
282 2 83.6252 -1.70371 34.5073 -0.100976 0.0242789 -0.0794262 
307 1 67.936 15.1311 -6.00488 0.0288124 0.0058126 0.0236487 
319 2 67.0419 14.3051 -5.75238 -0.00124226 0.10343 0.00722568 
308 1 69.0202 13.7095 -7.79036 -0.024472 -0.00243469 -0.00784528 
298 1 68.6903 14.926 -7.20213 0.0252091 -0.0178835 0.00792919 
320 2 69.2121 12.7477 -7.17024 -0.0504751 -0.0146927 -0.00472225 
292 1 69.1267 16.3259 -7.60224 -0.00312137 -0.0163635 -0.00299615 
311 1 69.7509 14.0695 -9.01013 0.00626019 5.60799e-05 0.014761 
300 1 69.7737 15.3637 -9.68246 -0.0170597 0.0250043 -0.0306039 
290 1 69.054 17.5984 -6.9903 0.0287637 -0.0142869 -0.0017721 
294 1 70.2334 16.2076 -8.56166 -0.00191781 0.0176323 -0.0116609 
323 2 69.3321 13.2735 -9.50351 0.0532866 -0.0218631 0.0730631 
312 1 68.8708 15.3523 -10.7033 0.0116804 0.00949903 0.0142146 
321 2 68.266 14.4554 -10.6821 0.00659578 -0.0395881 -0.0406607 
293 1 71.3491 16.9755 -8.77285 -0.0192304 -0.0103125 0.000848286 
310 1 72.0572 16.9378 -10.229 -0.0277653 -0.0292994 -0.00102501 
322 2 71.5589 16.1882 -10.765 -0.0218359 -0.00101601 0.102049 
289 1 70.2944 18.464 -6.71528 0.00989465 -0.000399849 0.00614193 
291 1 71.1746 18.2188 -7.94791 0.00548745 -0.00932767 0.0205337 
297 1 72.131 19.3633 -7.6404 -0.00813355 -0.0212616 -0.0178153 
317 2 73.1639 20.3569 -5.95742 0.0570016 0.0160786 0.0229091 
305 1 72.1496 20.2474 -6.45461 0.00591362 -0.00472841 -0.00191386 
299 1 73.1608 17.8433 -10.6122 -0.00411946 0.0224551 -0.0276524 
306 1 73.188 19.6254 -8.5382 -0.0199335 -0.0158307 0.00343441 
318 2 73.9713 20.3838 -8.35865 0.10685 -0.0667057 0.0548852 
309 1 73.6024 18.912 -9.71598 0.00446762 -0.0094344 -0.0144876 
533 2 78.1844 33.0735 -10.9293 -0.00564219 -0.0243206 -0.0178206 
286 2 60.2546 18.6185 2.87797 -0.0887889 -0.102946 -0.0178226 
296 1 68.6901 17.4452 -5.58847 0.0138736 -0.0201239 0.00726324 
304 1 67.7553 16.3745 -5.30856 -0.0257369 0.00147886 0.0269189 
316 2 67.1357 16.0523 -4.25416 -0.0473091 -0.00190334 -0.042152 
315 2 68.584 18.0309 -3.70362 -0.0729541 -0.00881315 -0.0387896 
303 1 69.2863 18.2024 -4.35123 0.00274526 -0.0123459 0.0090446 
313 2 69.2948 20.1852 -3.83849 0.0391761 -0.104191 -0.0374294 
314 2 70.6474 21.9134 -6.59293 0.0991098 0.0180766 0.0410901 
301 1 69.5841 19.4921 -4.55302 0.0243091 0.0231524 -0.0345322 
295 1 70.1385 19.7169 -5.9399 -0.0192724 0.0129264 -0.0240666 
302 1 70.9572 21.0287 -6.1153 0.0158575 0.0146423 -0.00701853 
281 2 65.1358 15.5367 5.46584 -0.143708 -0.0357057 0.0451415 
273 1 62.1399 17.4236 3.69668 0.0163109 0.0107801 0.00296782 
270 1 62.9977 16.6749 4.55546 -0.0231545 -0.00243713 0.0241121 
261 1 63.4556 16.421 5.98892 0.0100714 0.00454931 -0.00972104 
285 2 62.1213 17.2784 2.63423 0.00920769 -0.018358 0.0218324 
534 2 75.4889 29.4904 -10.8304 -0.0549694 -0.0940727 0.00394437 
263 1 61.4163 18.4515 4.61977 0.0309499 -0.00240678 -0.019325 
257 1 61.5834 18.322 5.9521 0.0178682 -0.0232208 -0.0132831 
269 1 64.7678 16.0967 6.50351 0.00588788 -0.0014701 0.0207381 
278 2 66.3917 16.7189 8.15269 -0.00144267 -0.0930516 0.031486 
266 1 65.1623 16.5651 7.57003 -0.0180685 0.00701664 -0.00220847 
262 1 60.1722 20.3873 9.12336 0.00947539 -0.00782576 -0.00466511 
258 1 60.8879 19.2933 6.88179 0.0116517 -0.00733819 -0.0112866 
255 1 62.7009 17.4845 6.64726 0.00773866 -0.00485142 -0.00616493 
279 2 63.9245 18.9455 11.6379 -0.119738 0.0285248 0.102469 
256 1 61.2977 19.8025 8.06187 -0.0100315 0.00899523 0.0260269 
267 1 64.031 18.8183 10.5885 -0.0202111 0.00485443 -0.00621075 
324 2 68.5824 16.3309 -10.7352 -0.0188108 -0.0205102 -0.00384242 
268 1 61.7261 19.3632 11.1144 0.00925759 0.0212062 -0.0257383 
277 2 65.8657 18.0117 9.92561 -0.0606271 0.0297806 0.0882494 
265 1 64.8383 18.2299 9.65426 0.00738766 -0.0338657 -0.00739711 
253 1 63.2467 18.1927 7.74933 0.00581591 -0.00855266 0.00893618 
259 1 64.393 17.4802 8.46454 -0.00892833 -0.00638546 -0.0204802 
254 1 62.3843 18.9912 8.70881 -0.0222074 -0.00393956 0.00622212 
260 1 62.5377 18.7374 10.0831 0.000640557 -0.0224428 0.0145853 
271 1 60.8395 19.9748 10.3174 0.0168039 0.0253166 -0.00214745 
521 1 77.5804 33.4066 -11.8916 0.0202273 0.0104303 -0.0117126 