ITEM: TIMESTEP
370000
ITEM: NUMBER OF ATOMS
576
ITEM: BOX BOUNDS pp pp pp
-1.2000000000000000e+01 8.4000000000000000e+01
-1.2000000000000000e+01 3.6000000000000000e+01
-1.2000000000000000e+01 3.6000000000000000e+01
ITEM: ATOMS id type x y z vx vy vz 
354 2 5.29002 9.87676 8.80772 -0.106413 0.0700673 -0.00719566 
342 1 6.33683 9.742 8.68817 -0.00164838 -0.0319527 0.00633042 
345 1 7.44312 8.67234 8.72952 -0.00871666 -0.0101496 0.0276669 
358 2 9.45945 6.40053 9.83103 0.00291172 0.118672 -0.0587109 
216 2 7.12474 8.01772 7.77646 0.0736986 0.0558372 0.0886499 
335 1 8.93732 8.59832 8.92456 -0.0166525 -0.020398 -0.0138689 
346 1 9.3454 7.14319 9.06533 -0.0288763 -0.0388703 0.00560548 
329 1 9.21851 9.75801 7.90058 -0.00503676 -0.00270451 -0.0262424 
333 1 6.94913 10.7221 7.82802 -0.0194868 -0.0263145 -0.00362715 
330 1 10.4807 9.40222 7.40956 2.64201e-06 -0.0242395 -0.00198832 
327 1 8.44958 10.8525 7.43991 0.0096589 -0.00386418 0.0095221 
328 1 11.1365 10.5243 6.46412 -0.0310673 -0.014737 0.0115512 
348 1 10.3898 7.14756 8.02689 -0.00760252 0.00938729 0.000420717 
336 1 11.1875 8.196 7.49155 0.00315941 -0.0115 -0.0096361 
360 2 10.646 6.2702 7.58626 -0.00672203 0.109767 0.0315721 
326 1 10.7091 11.7334 6.01268 -0.0126254 0.0369265 0.0082228 
325 1 9.2024 11.71 6.45365 0.0274936 0.0110389 0.00183517 
350 2 6.47714 11.9333 5.69682 -0.106336 -0.0368883 -0.0577951 
466 2 -7.92556 -9.1713 22.7381 -0.0694447 -0.0817685 -0.0643222 
468 2 -9.81379 -8.30662 20.9091 0.0515111 -0.00142328 -0.0516961 
454 1 -8.59068 -8.16139 22.9409 0.0122468 -0.0195185 0.0266299 
456 1 -9.29558 -7.69397 21.8087 0.0202788 0.0232044 0.00385304 
467 2 -10.5569 -6.41998 20.3139 0.0055465 0.0103866 -0.0372499 
455 1 -10.0118 -5.73639 20.8953 0.00124074 -0.011221 0.00714248 
452 1 -9.67788 -4.43265 20.9272 -0.0123622 -0.0155607 -0.0154734 
464 2 -8.91214 -2.32026 20.8426 0.0201345 0.042718 0.00879175 
444 1 -9.12272 -6.32339 21.9595 0.00320071 -0.00270833 -0.0236984 
442 1 -8.78087 -3.52374 21.2139 -0.0016618 -0.00110193 0.0126273 
436 1 -8.14266 -3.95738 22.4636 -0.0125238 -0.00909149 0.00109342 
438 1 -8.48232 -5.35604 22.7796 -0.00912306 -0.00801529 -0.00119858 
460 2 -6.49306 -1.06783 21.9441 -0.0544019 0.0675568 0.0145322 
448 1 -6.58924 -1.0145 23.1505 -0.0137406 -0.0163017 -0.00303655 
465 2 -8.46117 -9.10745 25.5058 0.0357614 -0.0213502 -0.0858312 
450 1 -7.52949 -7.25493 26.4125 -0.000197572 -0.0188614 0.00586585 
453 1 -8.08711 -7.99159 25.5261 -0.00339256 -0.0259866 -0.00668726 
443 1 -8.45286 -7.40829 24.0881 -0.0306907 0.0235642 -0.00620976 
462 2 -7.03574 -7.38928 27.4479 0.0250529 0.0892934 -0.0127007 
437 1 -7.89988 -6.01833 23.9855 0.00756886 -0.00298382 -0.0112559 
441 1 -6.82251 -5.81596 26.3469 0.0212046 -0.00730311 0.00477539 
435 1 -7.03086 -5.27767 24.8945 -0.00609262 -0.0159036 -0.000831377 
434 1 -7.64564 -3.33595 23.7225 0.0250791 -0.0176071 -0.0210688 
433 1 -7.3653 -3.87356 24.9229 0.00659093 -0.00111591 -0.0070236 
440 1 -7.80559 -1.67019 23.7066 -0.00487652 -0.00428579 -0.0322473 
439 1 -7.27826 -3.31698 26.2421 0.0027245 0.019843 -0.0264129 
449 1 -6.12288 -5.00518 27.3398 0.00977307 -0.000856272 -0.000493522 
447 1 -7.65546 -1.17866 25.1317 0.0147297 -0.0023463 -0.00584409 
446 1 -6.16663 -3.60379 27.1428 -0.0241748 -0.00702275 0.0021472 
445 1 -7.42615 -1.97488 26.2438 0.00733858 0.00132968 -0.00385693 
457 2 -7.42239 -1.20033 27.0871 0.134726 0.0330117 -0.0365095 
458 2 -5.91396 -2.4785 26.9812 0.0275685 0.0605096 0.0124617 
459 2 -7.45043 0.0137661 25.2726 -0.0284484 0.036959 -0.0542368 
451 1 -5.62319 -0.593874 23.9187 -0.00333845 0.00738455 -0.00926384 
461 2 -5.18933 -5.30516 28.0611 -0.00490952 -0.0207267 0.0851821 
463 2 -4.45804 0.127079 24.0208 0.0376373 0.0045734 0.0387702 
116 1 -7.77946 16.9442 -8.59223 0.0165211 -0.00907597 -0.0117341 
124 1 -9.28225 16.8387 -8.49296 0.00460155 -0.0176023 0.0168548 
123 1 -6.79763 16.4118 -9.65701 -0.0149109 -0.0200418 -0.0270963 
127 1 -10.0274 17.7238 -7.69046 0.0403444 0.0202515 0.0212254 
133 2 -6.92385 15.2416 -10.0826 0.0623805 -0.00488459 -0.0609567 
136 2 -9.84832 16.3733 -9.17857 -0.0240212 0.000800496 -0.0366647 
139 2 -10.9265 17.8777 -8.08825 -0.080177 0.0190358 -0.00233551 
121 1 -5.98021 17.3828 -9.93855 -0.0172524 -0.00774511 0.0192117 
115 1 -5.4318 18.6846 -9.80501 0.0229503 0.00298866 -0.0202738 
110 1 -7.32065 18.2954 -8.11091 0.004922 0.0185854 0.00258159 
118 1 -9.4118 18.7496 -6.72295 -0.0156748 -0.0153786 -0.0103229 
112 1 -8.14021 18.9949 -7.28025 -0.00913817 0.00934135 -0.000433541 
114 1 -7.56447 20.3368 -6.88064 -0.00142803 0.0218084 -0.0211623 
111 1 -5.73304 20.1896 -8.31918 -0.0177009 0.00693004 -0.00582391 
113 1 -6.43103 20.8622 -7.28648 0.00362776 0.0275332 -7.14022e-05 
119 1 -5.8558 22.1336 -7.04233 -0.00562801 -0.0108095 0.0122228 
128 1 -10.1769 19.3014 -5.54181 -0.000678708 0.0141723 0.0118469 
353 2 5.98541 12.6566 8.22172 -0.00180008 0.0125427 -0.0254918 
109 1 -6.40737 19.1379 -8.65192 -0.00667923 0.000427151 0.0156482 
122 1 -4.70235 19.5557 -10.6242 0.00990485 -0.00991862 -0.0435596 
129 1 -5.36826 23.1336 -8.11966 0.0228492 0.015356 0.00583065 
141 2 -5.14503 24.1705 -7.93291 -0.0405304 0.0511619 0.0126431 
117 1 -4.57103 20.7979 -8.79852 -0.00597911 0.0229253 -0.000421609 
126 1 -4.18094 22.1659 -8.21407 0.0148475 -0.00994802 0.0204277 
138 2 -2.99792 22.1896 -7.99587 0.00818085 0.0102833 0.0463858 
125 1 -4.35941 20.9037 -10.2649 0.012439 -0.0052511 0.00660475 
137 2 -3.57818 21.6634 -10.1417 -0.0630235 -0.014346 0.0494876 
130 1 -6.37802 23.0387 -6.0456 -0.0223745 -0.0140641 0.0121445 
120 1 -7.91192 20.9685 -5.66114 -0.00993642 0.00107963 -0.00971687 
132 1 -7.74287 22.4295 -5.70447 0.00332826 0.00351239 0.000473958 
140 2 -11.0185 19.0224 -5.08538 -0.047259 0.013048 -0.0199176 
131 1 -9.37717 20.6 -5.205 0.0267046 0.00999688 0.0121573 
144 2 -8.1986 22.9109 -4.94695 0.0565923 0.0333866 -0.00032523 
143 2 -9.30261 20.8189 -4.05734 0.0650796 -0.00487076 0.0836825 
142 2 -6.03863 23.9487 -5.37372 0.0208998 -0.0799735 -0.0229437 
411 1 -10.8606 29.1058 -1.83755 -0.0231713 -0.0152774 0.00265798 
412 1 -10.436 26.7148 -1.05458 0.00504078 -0.0138713 -0.0307664 
424 2 -11.616 26.6785 -0.951369 0.0150333 -0.00361686 -0.0116042 
404 1 -9.8122 28.0336 -1.43432 0.00463395 0.0063483 0.00717277 
398 1 -8.38723 28.0042 -1.98713 -0.0155525 -0.00371533 0.00181763 
415 1 -9.67791 25.6512 -1.12153 -0.0120237 0.00457688 -0.0120476 
427 2 -9.45477 24.4763 -1.12647 -0.035702 -0.0272519 0.0351019 
406 1 -8.22702 25.8546 -1.27475 -0.0158615 -0.0292574 0.0179271 
400 1 -7.66853 27.2562 -0.88269 -0.00968524 0.00234409 -0.037218 
351 2 10.8686 15.1335 4.9557 0.0556687 0.0224626 -0.0237028 
416 1 -7.40397 24.91 -0.685589 -0.043718 0.00840841 0.0258151 
397 1 -7.72984 29.3642 -2.20881 -0.00525406 0.000689974 -0.00675972 
408 1 -5.83913 26.4615 0.654482 -0.0196814 0.00562655 -0.00317816 
402 1 -6.35498 27.4848 -0.327222 -0.00168933 0.00683706 0.00148644 
419 1 -6.51175 25.2289 0.438325 0.00496856 -0.0132697 -0.00804482 
431 2 -6.12612 24.3419 0.957436 -0.0133006 -0.0615088 0.0260241 
401 1 -5.48859 28.3408 -1.20316 -0.0304749 -0.0178976 -0.0133946 
407 1 -4.05841 28.2913 -1.55053 0.0110556 -0.0126633 -0.00213559 
429 2 -3.33984 27.4675 -1.67056 -0.0666828 0.00349909 0.0102443 
409 1 -9.80748 30.0525 -2.02567 -0.00480775 0.0310767 -0.0145592 
422 2 -8.27154 32.8688 -3.24761 -0.00757598 -0.0141252 0.0813556 
403 1 -8.77253 30.5514 -2.67747 0.00727774 -0.0149665 -0.00149451 
410 1 -8.05583 31.7649 -2.7811 0.0170604 -0.016021 -0.0174778 
425 2 -6.11808 32.601 -2.94749 0.0498741 0.0171005 0.0235028 
413 1 -6.68277 31.6998 -2.70047 0.0127097 -0.0333697 0.00959349 
399 1 -6.35915 29.4225 -1.77904 -0.010055 0.00550012 0.023078 
405 1 -5.69892 30.5503 -2.33731 0.0161028 0.00119909 -0.0173622 
414 1 -4.27976 30.6146 -2.42983 -0.0226442 0.0128065 -0.00432071 
417 1 -3.5271 29.5606 -1.87566 0.0101461 -0.01992 -0.0161099 
426 2 -3.71464 31.2858 -2.95091 -0.0302237 -0.0607217 -0.0115066 
332 1 11.0785 12.9162 5.41531 0.00703289 -0.0154487 -0.0117829 
428 2 -7.43981 23.7811 -0.666173 0.104713 -0.0114331 0.00569911 
420 1 -5.12967 26.6547 1.82426 -0.0102162 -0.0166843 0.0229259 
418 1 -4.44391 27.5715 2.36119 0.010963 0.00457406 -0.00021683 
430 2 -3.53537 27.1982 2.96227 0.0115614 0.0126121 0.0989308 
432 2 -4.94124 28.5327 2.38422 -0.0244934 -0.0371373 -0.00418775 
339 1 10.3832 14.1589 5.22765 -0.0031231 -0.0153949 -0.0289101 
338 1 7.06844 12.418 6.28783 -0.0206893 0.0114916 -0.0257335 
423 2 -11.0945 29.2005 -0.769584 -0.0385816 0.073346 -0.00650273 
349 2 8.03595 14.6293 5.135 0.0332008 -0.0989215 0.0175803 
331 1 8.49663 12.889 6.19181 -0.00584456 -0.00405763 -0.0112817 
337 1 8.98815 14.0617 5.43828 -0.0199538 -0.0282736 -0.0118375 
341 1 6.76623 12.2814 7.68186 0.0280626 0.0173068 0.0200211 
134 2 -4.23478 18.9469 -11.4813 -0.0398947 0.0644089 0.0860076 
357 2 -11.7434 29.0493 22.2484 -0.115692 -0.0209693 0.055165 
334 1 12.349 10.3622 5.65164 0.0142888 0.0333443 -0.00122979 
356 2 14.1924 9.32816 6.19287 0.0612648 -0.0445803 -0.0180229 
344 1 13.1147 9.12324 6.14879 -0.0126366 0.00741648 -0.00972551 
355 2 13.8693 11.267 4.35297 -0.0479768 0.0593493 -0.0197807 
347 1 12.4488 7.96031 6.52489 0.00417151 -0.00555797 -0.00557407 
359 2 12.9943 6.86468 6.4138 -0.0337298 0.0954024 -0.0419516 
343 1 12.9674 11.432 4.97015 -0.00463355 -0.0053076 0.0122033 
33 2 34.6269 9.8573 0.494637 0.0145424 0.0223626 0.0374762 
21 1 35.7185 9.98771 0.439399 -0.00891783 0.00313713 0.0165946 
490 1 21.7207 -10.4713 16.5393 -0.0142622 0.0109142 -0.0172393 
496 2 21.3846 -4.87547 24.5096 0.0487059 -0.100457 0.0117612 
497 2 18.0468 -9.07926 19.5565 -0.0290276 -0.00428877 0.0364616 
494 2 18.4656 -11.0817 21.9371 -0.0683985 -0.0222175 0.0465989 
485 1 18.1173 -10.089 21.6441 -0.000437668 -0.00241327 -0.00862018 
501 2 20.0443 -7.06028 21.0436 -0.0462372 0.0241797 -0.0483515 
477 1 18.6536 -9.58686 20.3459 0.0222899 0.00803364 -0.00915925 
479 1 20.7206 -7.50962 20.2051 0.0373469 0.0215262 -0.0184518 
476 1 20.7573 -6.2991 23.7131 -0.0135972 -0.0063599 -0.0122001 
487 1 23.1062 -4.92566 23.1663 0.00774433 0.00333007 0.00329691 
470 1 21.1073 -7.03933 22.4225 0.00498881 0.0229191 0.0207111 
472 1 22.2192 -6.74278 21.5249 -0.00817978 -0.00638725 -0.0133788 
478 1 23.1257 -5.8328 21.875 -0.0061849 0.0187917 -0.00631313 
473 1 22.1306 -7.74551 20.2017 -0.0109527 -0.00873757 0.00100522 
474 1 22.8455 -7.92407 18.8572 0.0166856 -0.022338 -0.00489099 
503 2 23.6618 -5.53476 20.9751 -0.0347073 -0.00251285 0.080434 
471 1 19.6542 -8.69253 21.1118 0.0135365 -0.0165236 -0.0191071 
469 1 20.1247 -8.13656 22.3827 -0.0144257 0.00513351 0.0117938 
492 1 22.1842 -10.0901 17.5605 -0.0378718 0.0248222 0.0115383 
480 1 22.5679 -9.64024 18.9184 0.0245765 0.0315641 0.00315478 
486 1 19.0734 -11.1089 19.6638 0.0106126 0.0247304 -0.0038658 
491 1 22.4843 -10.3346 20.3021 0.00404611 0.00360382 -0.00334131 
475 1 18.6431 -7.83395 23.0933 -0.0127754 0.0214131 -0.0176979 
488 1 21.3633 -11.0989 20.1456 -0.00404795 0.028076 0.00757733 
177 2 29.4544 -6.80913 27.2742 -0.0465973 -0.0412435 -0.0145924 
484 1 21.9138 -5.33892 23.7348 -0.0012544 0.0165669 0.00733204 
499 2 23.7605 -4.00481 23.0921 0.0111666 -0.0518744 -0.058873 
230 1 28.9855 11.2929 21.6737 2.86679e-06 0.0177303 0.00532949 
233 1 27.4856 11.5196 21.9665 -0.00264095 -0.00875349 -0.0226276 
500 2 22.8062 -9.77153 21.2835 0.0112602 -0.0559175 0.0667338 
242 2 29.7029 10.4581 22.0294 0.0142648 0.00496819 0.0115294 
245 2 26.9831 11.049 21.1371 0.0470307 0.0367025 0.0540013 
246 2 25.4977 11.2951 24.162 -0.10353 0.0591574 0.0170257 
489 1 20.2283 -11.7463 19.7011 0.0143788 -0.0270291 -0.0109358 
493 2 20.0993 -5.6664 25.5962 -0.0218346 0.00473237 -0.0506642 
108 2 16.7623 -9.49087 22.6433 0.00858231 0.0290097 -0.00911827 
483 1 19.8862 -6.26622 24.7276 0.0164409 0.00940129 0.00194765 
482 1 17.9204 -9.10978 22.6418 -0.00527225 0.00766693 -0.00908306 
481 1 18.778 -7.29374 24.417 -0.0168463 -0.0391884 -0.014167 
502 2 21.0888 -11.4944 16.3498 -0.0346291 -0.0190401 -0.00873227 
241 2 31.2603 12.1762 21.6172 0.00276307 0.114129 -0.0524019 
208 2 26.9133 20.2249 -10.9712 0.0524999 -0.0662974 0.0146578 
549 1 24.0653 25.0427 7.5775 0.0271378 0.0104782 -0.023602 
211 2 26.5515 21.5164 -9.00415 0.0153694 0.00657839 -0.127739 
196 1 26.8959 21.3232 -11.0371 0.0271571 -0.00764038 -0.0217495 
541 1 24.9872 25.5428 9.88435 -0.0214123 -0.0227243 0.0149296 
199 1 26.9542 22.0661 -9.77611 -0.0221235 0.0247247 0.00381098 
184 1 26.4865 23.8069 -10.8167 0.0265686 -0.00118695 0.00122105 
212 2 28.2374 24.112 -7.73904 0.0199097 0.0353573 -0.0654658 
190 1 27.3196 23.5813 -9.6919 0.0261296 -0.0330691 0.0118877 
200 1 28.0144 24.324 -8.69428 0.0126276 0.022832 -0.00127109 
214 2 25.6402 28.8766 -11.3481 0.0656584 -0.0169327 -0.0357899 
191 1 24.5572 27.0115 -11.4867 -0.0101643 -0.0249064 -0.00974406 
185 1 24.8766 25.6135 -11.4259 0.0122929 0.00888031 0.0105204 
202 1 25.5749 27.8398 -11.1496 0.0133661 -0.0226831 -0.00906322 
186 1 25.9951 25.1408 -10.6623 0.00314089 0.0134449 -0.000199793 
192 1 27.0116 26.2457 -10.0864 -0.00404325 0.0170585 -0.0134231 
203 1 27.8808 25.8155 -8.92893 -0.0077774 0.0248609 0.0188984 
215 2 27.9094 26.6939 -8.13779 0.0390552 -0.0268666 -0.107599 
204 1 26.6829 27.5373 -10.4198 0.0230377 -0.0171649 0.0279549 
553 1 23.6811 27.2421 11.3262 0.036108 -0.0163693 0.0374165 
565 2 22.4728 27.1878 11.327 0.0517389 -0.0702853 0.0567622 
352 2 12.9871 13.5053 4.92384 -0.0170587 -0.0501984 0.0115069 
340 1 12.4732 12.7393 4.97363 -0.0109777 -0.039702 0.00406893 
542 1 25.7082 25.2886 11.036 -0.0162098 0.0045876 0.00499865 
543 1 24.975 24.5597 8.78163 0.0162215 0.0189709 0.00740259 
570 2 23.3164 24.36 5.48607 0.0166468 0.0616141 0.14044 
573 2 24.1443 22.5995 7.6821 -0.00112374 -0.0541918 -0.027776 
561 1 24.719 22.8218 6.63184 -0.00238726 -0.0129564 -0.00713351 
558 1 24.0909 24.1535 6.24037 -0.00583249 0.0208985 -0.00675178 
547 1 23.9273 26.651 9.95113 -0.001546 0.00408246 -0.00807941 
551 1 26.2418 23.0115 7.2621 -0.0232509 0.014471 0.0103996 
545 1 25.6896 23.2447 8.56227 0.00673326 0.00386176 0.00955791 
574 2 28.1774 24.221 6.76499 0.119671 -0.0348912 0.0114518 
563 1 28.5208 22.0954 10.5815 -0.00450265 0.000917969 -0.00241453 
552 1 27.7408 22.6788 9.36164 0.0339894 0.003208 -0.0102812 
560 1 28.0354 22.1962 11.9237 0.0169765 -0.0179194 -0.00103389 
546 1 26.4454 23.1215 9.91532 -0.000166909 0.00786464 -0.00551666 
562 1 27.5821 23.5741 7.15624 -0.00216086 -0.00227767 0.0237837 
576 2 29.6627 22.5451 7.82333 -0.0167889 -0.0257188 0.0575465 
564 1 28.5324 23.0087 8.16521 -0.00672117 0.0183231 0.0255389 
544 1 26.4066 23.9808 11.0901 -0.0136878 0.00298813 -0.0174009 
575 2 29.7149 22.2234 10.4881 -0.00926254 -0.00962201 0.0240527 
569 2 22.3821 26.2806 6.76163 0.0607679 -0.0574638 0.0385658 
557 1 23.1973 26.0849 7.53462 -0.0181973 0.0167069 0.00687938 
566 2 22.5416 27.7668 8.41179 0.0601594 0.0347122 -0.010176 
554 1 23.2308 26.8511 8.80548 -0.00576592 0.00806378 0.00944909 
22 1 35.888 12.7047 0.820098 0.00268225 -0.00995277 0.00977564 
34 2 35.7696 13.5915 1.64343 -0.0433894 0.0207962 0.102361 
36 2 35.7066 12.7254 -1.30934 -0.0638015 0.0301623 0.0518426 
571 2 27.6658 24.0343 14.0401 -0.0209535 -0.0395537 0.0372006 
559 1 26.7761 24.2853 13.2269 -0.00304928 0.0188448 -0.0138308 
572 2 28.7312 21.7735 12.8183 -0.0706445 -0.11287 -0.031765 
568 2 24.7879 24.2522 13.8491 0.0258658 0.0683756 -0.0451703 
556 1 25.4163 24.9307 13.1611 0.00356469 0.0154339 0.0120874 
567 2 24.0363 27.5114 13.5188 -0.0397746 -0.0481519 -0.0728171 
225 1 26.6244 12.4835 22.8108 -0.0114134 -0.00252972 -0.00240418 
250 2 23.0444 14.5868 23.1163 0.0076269 0.0540876 0.106688 
238 1 23.8633 15.3959 22.9379 0.00734191 0.0068994 0.00931598 
209 2 21.7712 24.859 33.1027 0.0709063 -0.0640865 0.044492 
252 2 23.2589 16.9157 21.638 -0.0462876 -0.0144354 -0.00879231 
226 1 27.7155 17.3407 20.378 0.00350278 0.0295488 0.0148528 
235 1 29.2611 17.4243 20.9241 -0.0109945 -0.0359375 -0.0170545 
222 1 26.3305 15.735 21.6749 -0.0513298 -0.00934512 -0.00779374 
220 1 27.3899 16.0842 20.6326 0.0110194 0.0105579 -0.0334924 
228 1 25.4558 16.8039 21.9963 -0.0219516 0.0134665 -0.0234435 
218 1 28.5517 15.0681 20.8416 0.00486483 0.0210591 0.0317721 
221 1 26.0434 14.6792 22.4126 -0.00539629 0.0030634 -0.0263808 
219 1 27.1706 13.7448 22.4687 0.0242652 0.00405324 -0.0193776 
217 1 28.1525 13.7414 21.5461 -0.0335167 0.00592358 -0.00219103 
240 1 24.0687 16.4829 22.2539 -0.00467213 0.00309987 0.0329432 
244 2 31.4101 16.6113 20.4576 -0.0445386 0.000176774 -0.0157268 
232 1 30.4721 16.7646 20.8561 0.0271716 0.0141114 0.0220194 
223 1 29.1957 12.6758 21.3514 -0.00439552 0.0117546 -0.014018 
227 1 24.8597 14.4438 23.4389 0.00131061 -0.0169617 -0.0223158 
237 1 24.7366 13.3281 24.2791 -0.0117749 0.0134149 0.0146788 
247 2 29.2074 18.3864 21.4845 0.0357902 -0.0172174 -0.041749 
229 1 30.6072 12.9202 20.9922 0.00287613 0.00578052 0.0107274 
213 2 23.2654 28.182 35.3799 -0.020287 0.0227655 0.0574779 
224 1 29.9512 15.3046 20.7054 -0.0067478 0.00345743 -0.00192046 
231 1 31.037 14.2825 20.8325 -0.0125927 -0.0205929 0.0184003 
243 2 32.1662 14.8731 20.6785 0.0593666 0.0628421 0.0714167 
421 2 24.6681 17.9025 27.9299 -0.0446189 0.0246698 0.0524742 
236 1 26.6011 18.2568 20.7052 -0.00234618 0.00181661 0.0106498 
239 1 25.4219 18.1491 21.3121 0.00657373 -0.00450414 -0.023958 
251 2 25.1457 19.2992 21.244 0.0473694 -0.0264896 -0.0625524 
248 2 27.2082 19.0806 20.1376 0.00315698 0.0539223 0.0696065 
198 1 22.2437 26.3338 35.7611 -0.0169259 0.00251771 0.0375756 
249 2 23.8887 13.629 24.8342 0.0447316 0.00475677 0.00778735 
152 1 21.4363 16.2578 28.0054 -0.00128487 0.000964585 -0.0192311 
169 2 23.2131 17.3144 27.2294 -0.0842437 -0.0987933 -0.0916724 
175 2 21.3232 13.506 28.7183 0.100468 -0.0995924 -0.00812245 
163 1 20.7726 14.3815 28.8212 0.0031449 -0.00592308 -0.00383392 
160 1 21.1229 14.9089 27.5424 -0.00623773 0.0121646 0.00177504 
172 2 21.3994 15.2024 26.4982 -0.00808171 -0.121223 -0.0163803 
146 1 20.7375 17.1025 29.0393 0.000950894 0.00467699 -0.028722 
159 1 22.1544 17.0732 27.0855 -0.0193622 0.00888356 0.000467386 
173 2 20.7967 22.5055 28.413 -0.0611221 -0.0483743 0.014485 
161 1 20.8052 21.4725 28.5842 0.0050554 0.0258213 -0.0210349 
151 1 20.8815 19.1761 27.6354 0.00540787 -0.0149542 -0.00346199 
145 1 20.6076 18.4768 28.9563 0.000715388 0.00996105 -0.0084951 
158 1 21.0783 20.7887 27.4769 0.0159493 -0.0141814 0.0278892 
170 2 21.2445 21.1977 26.4244 -0.0544727 -0.025097 -0.0168233 
171 2 21.5472 18.6162 25.8109 -0.0463338 -0.0133835 -0.00403053 
157 1 21.2142 18.2636 26.648 -0.00274664 0.00258266 -0.00203289 
183 1 24.3449 24.5989 35.5667 -0.00140407 0.0230923 -0.00603781 
498 2 20.1245 35.1832 19.3354 0.0252439 -0.0570717 -0.018709 
180 2 19.7393 16.7606 34.6741 -0.0296524 -0.0480887 -0.0430413 
168 1 19.9735 17.3824 33.7534 0.025559 -0.00448514 0.0187914 
176 2 19.0812 13.2547 31.0684 -0.0199678 -0.0233225 0.0849097 
156 1 19.8858 16.5339 32.5636 -0.0088681 0.00419403 0.0076672 
150 1 20.1762 17.2512 31.4606 0.00153812 -0.00154674 0.00554831 
167 1 19.2062 15.1034 32.4608 -0.0290849 -0.00665194 0.0104731 
164 1 19.4711 14.3172 31.3658 0.00490904 0.00773998 0.00463558 
154 1 20.4503 15.0206 30.2773 -0.0130675 -0.0098008 -0.00340949 
148 1 20.5473 16.5254 30.3025 0.0217848 0.0023857 0.00963215 
178 2 20.7522 18.8534 34.8482 0.0056946 0.0683642 -0.0183246 
174 2 20.0109 21.3181 33.3302 -0.0770992 -0.0528606 0.0658756 
165 1 20.6849 20.7492 32.5954 0.00875551 0.000258181 0.013505 
166 1 21.003 18.459 33.8093 0.0216639 0.00501462 -0.00803461 
153 1 20.6258 20.7583 30.0598 0.0132987 -0.0129756 -0.0261789 
147 1 20.4153 19.0571 30.2373 -0.00635873 -0.0045344 0.0183257 
162 1 20.7562 21.0454 31.2354 0.0189798 0.00506108 0.00973462 
155 1 21.1062 19.3376 32.6386 0.0351185 -0.000863177 -0.00893884 
149 1 20.1607 18.7871 31.642 -0.013538 -0.0217234 0.0158401 
206 2 23.2199 22.7754 32.449 0.0644647 -0.0514041 -0.024867 
194 1 23.2937 23.3367 33.2311 -0.00201997 -0.0228874 0.00396944 
187 1 24.2373 22.9184 34.067 -0.00288209 0.022174 -0.0155359 
207 2 27.1114 21.0901 33.5692 0.0200655 -0.0757716 -0.0728075 
205 2 24.2482 21.2448 33.0418 -0.00220717 -0.0276933 0.00276581 
193 1 25.0001 21.6914 33.4942 0.00821254 0.0207333 0.00964837 
181 1 24.908 23.5552 35.211 0.00244296 0.0222052 -0.00677184 
195 1 26.3175 21.371 34.2843 0.00685922 0.0247096 -0.00649134 
201 1 23.3769 27.2603 35.8361 0.0215405 0.0143434 -0.00822702 
197 1 22.5696 24.3963 33.8741 0.0181172 -0.00377597 -0.0197134 
68 2 35.6431 33.0915 27.992 0.0936505 -0.0026743 -0.0243425 
210 2 21.2577 25.6845 35.8196 -0.0457328 -0.0970354 0.0423091 
189 1 22.8558 25.1903 35.0516 -0.0291672 0.019005 -0.0059235 
234 1 25.5022 12.2674 23.6446 0.0204281 -0.0239253 0.000650718 
550 1 27.1163 23.2702 12.0575 -0.00335676 0.0319371 0.00902693 
548 1 25.2788 26.0352 12.1253 -0.0084261 -0.00781121 -0.00239285 
188 1 26.4844 21.7668 35.71 -0.00816978 -0.00813761 0.0127469 
555 1 24.5791 27.2164 12.4653 -0.00968967 -0.0192719 -0.00243628 
182 1 26.1564 23.246 35.8148 0.00717542 -0.0102018 -0.0126813 
383 1 44.4243 -9.53839 -9.47532 0.0179648 -0.00847645 -0.0162924 
395 2 44.6313 -9.71 -10.4956 -0.0991072 -0.0385342 -0.0515634 
396 2 47.3166 -9.27493 -10.5654 0.0457235 0.0159757 -0.000432814 
390 2 48.7383 -7.57415 -10.0756 -0.00878732 0.00925797 0.00270737 
384 1 47.0543 -8.86078 -9.6118 0.0075033 -0.0178196 -0.00488318 
382 1 47.7775 -7.75546 -9.42678 0.0263524 0.0102871 0.00030584 
380 1 43.19 -10.0558 -9.05974 0.0145172 0.00289181 -0.017353 
372 1 45.8551 -9.24836 -8.74467 0.0123579 -0.0138419 -0.0388796 
366 1 45.6244 -8.50392 -7.5326 0.014424 0.00401093 0.00091926 
371 1 47.8151 -7.01243 -7.95076 0.0368679 -0.000899228 -0.0376704 
370 1 42.9862 -9.6307 -7.72398 0.0066208 -0.00519752 -0.0212096 
364 1 44.2811 -8.86812 -7.12476 0.00991302 0.00211859 -0.0102383 
365 1 46.5449 -7.25574 -7.40398 0.00834472 -0.00761476 -0.0157765 
381 1 48.5798 -5.84292 -7.47201 0.00080826 0.00910748 0.0030757 
392 2 42.7838 -10.8379 -9.7481 0.0514535 0.00753399 0.0247901 
393 2 49.5112 -5.82844 -8.2373 -0.0709146 0.0157011 -0.0439269 
379 1 41.6897 -9.92686 -6.95534 0.00495251 0.00292477 -0.0126608 
388 2 40.4808 -9.26699 -5.45012 0.0135289 0.00319253 0.0126457 
376 1 41.7782 -9.20292 -5.81879 -0.00293553 -0.00835367 -0.000215318 
368 1 42.6027 -8.02463 -5.47697 0.0272237 0.0193088 -0.0258059 
391 2 41.0396 -10.7692 -6.86456 -0.0210916 0.0154704 -0.0725563 
375 1 42.1789 -6.97912 -4.49217 -0.00951515 0.014096 -0.00788567 
387 2 41.1429 -7.62069 -4.64014 -0.0346725 -0.0364913 -0.108615 
373 1 42.5763 -5.72145 -4.79935 -0.00802844 0.0093187 0.000226685 
362 1 44.0186 -7.81665 -6.01679 0.00550845 0.0014656 0.0153898 
361 1 44.7799 -6.65222 -5.86504 -0.00619643 0.0235964 0.016418 
363 1 46.0457 -6.27034 -6.64901 -0.00186565 -0.0192989 -0.0432199 
378 1 47.9269 -4.6135 -6.75878 0.0248039 0.00396374 -0.022893 
495 2 47.6951 -3.6579 -7.10125 -0.0136492 -0.0420901 -0.0799151 
315 2 55.0999 1.53907 10.9966 0.0324169 -0.0115085 -0.0397046 
385 2 42.0475 -4.76077 -4.49293 0.00988221 0.0350955 -0.0724252 
367 1 43.8373 -5.52299 -5.38718 0.00553382 0.00340647 -0.0106802 
374 1 44.3609 -4.32795 -5.05534 0.0365716 -0.0104548 -0.0023311 
369 1 46.5048 -4.89499 -6.34167 0.00135962 0.00399789 0.00238659 
377 1 45.6663 -4.18663 -5.29572 -0.0121611 0.0302112 -0.000376197 
389 2 46.6293 -3.4673 -5.07967 0.0293018 0.0636721 -0.114609 
386 2 43.916 -3.64508 -4.14314 -0.00823361 -0.13242 -0.0756491 
306 1 57.7563 -5.18252 11.957 0.0151791 0.00777829 0.0244889 
103 2 58.9745 -3.37652 -2.67855 0.00321397 0.0154667 0.059477 
11 1 36.5385 11.259 0.780427 -0.00821105 -0.00525107 -0.00837273 
5 1 37.9457 11.1984 0.163963 -0.00851992 -0.00861393 0.013237 
3 1 38.5722 9.80166 -0.162701 0.00258244 0.00893172 0.0150155 
9 1 38.06 8.84536 0.523098 0.0214818 0.0185613 -0.0115157 
1 1 39.6648 9.71316 -1.27067 -0.0121374 0.00481669 0.00146357 
14 1 40.2906 7.7539 -0.372974 -0.02612 -0.007994 0.0221823 
2 1 39.9283 10.7888 -2.30745 -0.0344225 0.0205605 -0.00242554 
7 1 40.273 8.47827 -1.69909 -0.00164437 -0.00793165 0.00768333 
26 2 41.138 7.35898 -0.0894501 -0.00691578 -0.0679651 0.0199329 
16 1 42.1661 11.2524 -1.93207 0.00536183 -0.0210788 -0.000515 
100 2 59.3581 -1.22333 -0.7688 -0.0305886 0.0285951 -0.0313414 
15 1 40.8921 9.18047 -3.75521 0.00727882 0.0139776 0.00900434 
13 1 40.991 7.89274 -2.8487 -0.0117835 0.00685436 -0.00416022 
25 2 41.4697 7.07548 -2.85448 0.0603169 0.0611023 -0.151549 
8 1 41.2417 10.4576 -2.76285 -0.00874721 -0.0134319 0.00764458 
27 2 41.1538 8.95687 -4.69888 -0.0415416 0.0223083 -0.0191475 
4 1 39.6461 11.9695 -1.66402 -0.00389712 -0.00640556 0.0342368 
320 2 55.6583 -2.8272 5.38787 0.0150739 -0.00370036 0.0193236 
308 1 56.3042 -2.99038 6.27566 -0.022239 -0.00311526 0.0122995 
319 2 55.0523 -0.366899 5.96209 -0.0453819 0.105584 0.0336635 
323 2 57.6823 -4.06869 4.54705 -0.0251805 -0.138673 -0.0503883 
30 2 35.7563 7.88437 1.06724 -0.0398438 0.127823 -0.0790378 
18 1 36.4869 8.80871 0.691958 0.0081595 0.00158415 0.0103934 
316 2 54.7246 1.35481 8.12749 0.0239938 0.0445157 0.0129891 
17 1 39.072 7.65118 0.52054 -0.0239785 -0.0139984 0.00463871 
29 2 39.1764 6.9608 1.26711 -0.0155141 0.100055 -0.017645 
324 2 59.7435 -5.27592 6.54589 0.0676698 0.112598 -0.013352 
28 2 42.9757 10.5992 -1.41726 -0.024394 -0.0428924 0.0617352 
321 2 58.4502 -7.0994 11.111 0.0851579 0.0178967 -0.0793166 
310 1 59.4875 -5.38259 8.5426 0.0118336 -0.00536959 0.00765259 
309 1 58.2001 -6.04265 10.9603 0.0050678 0.0159259 -0.0190947 
300 1 58.3325 -3.62479 7.05777 -0.00620651 0.0038875 0.0261557 
311 1 57.4659 -3.57983 5.71695 -0.0228836 0.0164312 -0.0143852 
293 1 57.9212 -4.09081 9.51744 0.00564911 0.0132304 0.0284728 
307 1 55.3294 -0.697646 7.16657 -0.0270183 0.0135701 0.017884 
294 1 57.8779 -3.12729 8.38847 -0.0161044 -0.0165649 0.00360633 
296 1 56.004 -0.00699878 9.51653 0.00634432 0.00152915 -0.00991181 
292 1 57.0563 -2.01431 8.35962 0.00537571 0.0210878 0.00445224 
91 1 59.8972 -2.98337 -2.39179 0.00303109 0.00523496 0.00761533 
304 1 55.3276 0.246048 8.11954 0.00847508 0.00703741 0.00111104 
290 1 56.7643 -1.17709 9.53556 -0.00961737 -0.00507119 0.00447136 
298 1 56.4456 -1.66933 7.04075 0.00394279 0.00578303 0.0181643 
312 1 59.0854 -4.85485 7.24301 0.0169799 -0.00782394 0.0101669 
289 1 56.9486 -2.0132 10.7429 -0.000500007 -0.0113057 0.00483071 
291 1 57.4204 -3.37742 10.474 -0.00346326 0.0284119 -0.00580332 
299 1 58.6459 -5.21868 9.70729 -0.0236967 -0.0118837 -0.0196469 
303 1 55.9043 0.83458 10.6872 -0.00516148 -0.00617573 0.00601384 
297 1 57.2179 -3.91061 11.7557 0.00850392 -0.00907053 -0.0311209 
295 1 56.9408 -1.36187 12.0248 -0.00861453 -0.0296572 0.0229122 
318 2 57.7609 -5.80921 12.9328 0.0514689 -0.0324086 -0.00327214 
65 2 45.4127 -11.4579 30.9754 0.00641377 0.0132384 0.091685 
314 2 55.6904 -2.05744 14.1597 0.0577529 -0.0538526 -0.0283313 
302 1 56.3472 -2.1278 13.3395 0.0241504 -0.00807699 0.00271615 
317 2 55.9097 -4.10861 13.8932 0.0858414 0.00915873 0.0222876 
301 1 56.0545 -0.0568028 11.9295 -0.00822659 -0.0202491 -0.0294864 
70 2 39.7099 -8.98244 28.3655 0.0302095 -0.0323998 0.0490847 
41 1 40.9357 -11.6696 30.1493 -0.0015195 -0.00656395 -0.0103698 
60 1 38.6681 -11.0281 29.0385 -0.00517394 0.0367813 0.0174931 
58 1 39.5701 -9.86349 28.8612 -0.0176688 -0.010456 0.0184922 
47 1 40.7276 -10.3646 29.7846 0.0123719 -0.0064963 -0.0233752 
53 1 44.5915 -11.8586 31.2673 -0.0343811 -0.00297005 0.0124589 
305 1 56.4454 -3.27324 12.999 0.015501 0.00967934 0.00695591 
66 2 41.5305 -8.47544 30.2526 -0.071396 -0.0575428 -0.0315344 
45 1 43.2589 -11.1681 30.9435 -0.00702409 -0.00860338 -8.76288e-05 
57 1 41.8374 -9.58268 30.2105 0.0278507 -0.0310698 -0.0214001 
54 1 43.1624 -9.95769 30.6644 0.00559032 0.0119825 0.0253864 
69 2 44.0713 -9.46079 30.4732 -0.0460349 0.00695511 0.0448564 
135 2 57.4546 4.56322 15.0998 -0.0466568 -0.0288474 -0.00476166 
282 2 57.5616 4.34396 15.9334 -0.0108623 0.0425589 0.0559676 
313 2 55.5234 0.435095 12.6469 0.10388 -0.108624 0.0298377 
32 2 40.5794 14.7089 -0.741777 -0.0709562 -0.0304554 0.0359494 
20 1 39.8711 14.055 -0.879788 -0.0297806 -0.00341358 0.010359 
23 1 38.6024 14.4345 -1.19462 0.0267774 0.00653129 0.0037923 
6 1 38.4845 11.999 -0.910457 -0.0184589 -0.0188394 0.0445585 
12 1 37.7075 13.2478 -0.881682 0.00357136 0.00349668 0.000682602 
10 1 40.7336 12.641 -1.36308 0.0211272 -0.00673604 -0.000683674 
24 1 36.3215 13.2139 -0.538821 0.0101086 -0.00637962 0.000456282 
35 2 38.6223 15.4272 -0.977335 -0.0807017 -0.0342069 0.075078 
19 1 41.7385 12.0232 -0.763221 0.00194875 -0.00381659 -0.00220995 
31 2 42.2039 12.8147 -0.180493 0.0298677 0.0529582 0.0823283 
269 1 45.0678 27.5805 23.878 -0.0149533 0.00256253 -0.000304069 
281 2 45.0272 26.6951 23.1817 -0.041269 0.0181788 0.00412383 
261 1 45.1459 28.9613 23.2145 0.0238852 -0.0379734 -0.00610623 
270 1 45.4591 28.8689 21.9741 0.0104161 0.0212499 0.0243069 
273 1 45.6719 30.0034 21.3106 -0.00745112 0.00403827 -0.000418205 
285 2 45.8538 30.6984 20.4252 -0.0169686 -0.0496807 -0.12703 
258 1 46.5148 32.2356 24.426 -0.00519172 -0.00336165 0.0215633 
255 1 45.2236 30.1317 23.9535 0.0127812 -0.0130904 0.00593579 
275 1 47.0811 34.6284 24.3888 -0.0173385 0.0105268 -0.000278608 
264 1 46.9465 33.3335 23.6259 0.0149517 0.00300186 -0.00380474 
257 1 46.2824 31.0058 23.5977 -0.0241126 0.000123152 0.00129927 
274 1 47.1377 31.9681 21.4739 -0.017892 0.0133183 0.00238585 
263 1 46.6551 30.8437 22.2956 -0.0284887 0.0171133 -0.0204486 
287 2 48.1923 34.9463 24.1525 0.0234691 0.0120937 0.0146119 
288 2 48.202 33.7759 21.8895 -0.0469255 -0.113118 -0.0341925 
286 2 47.3979 32.0011 20.5079 0.00364203 -0.0700131 0.0486508 
276 1 47.548 32.8698 22.4014 0.0206651 0.00353723 -0.0157128 
259 1 44.7407 28.8529 25.8168 -0.013875 0.0163384 0.00964373 
266 1 44.6496 27.4331 25.2506 -0.0274736 -0.022709 0.00847083 