ITEM: TIMESTEP
770000
ITEM: NUMBER OF ATOMS
576
ITEM: BOX BOUNDS pp pp pp
-1.2000000000000000e+01 8.4000000000000000e+01
-1.2000000000000000e+01 3.6000000000000000e+01
-1.2000000000000000e+01 3.6000000000000000e+01
ITEM: ATOMS id type x y z vx vy vz 
206 2 -9.14436 -10.7452 -5.69136 0.0687922 0.00911151 -0.142829 
277 2 -3.2183 -11.6393 -5.89959 0.0227906 0.040872 0.0713131 
71 2 5.24963 0.919002 -11.6136 -0.0413343 0.0499342 -0.0430177 
527 1 -6.93277 7.36281 -5.5157 0.000550539 0.034264 0.0249946 
536 2 -6.41306 6.49993 -5.86771 -0.0405399 -0.0341302 0.00582049 
535 2 -3.39641 9.2128 -4.28402 0.0574148 0.0477869 0.00687452 
432 2 -5.74967 -9.29529 -6.37842 0.0140962 -0.0198359 -0.018594 
201 1 -9.8704 -6.29534 -2.4397 -0.00179906 -0.00820464 0.0208397 
192 1 -6.89111 -8.07758 0.099133 -0.00123384 0.00117784 0.00754477 
182 1 -9.41519 -10.9852 -1.03365 0.000438461 0.00713584 0.0111383 
204 1 -6.89814 -6.65754 0.133639 0.0276983 0.0216128 0.0253419 
184 1 -8.67299 -10.0979 -0.176715 -0.000326509 -0.0384265 0.00975791 
186 1 -8.19536 -8.67553 -0.520251 0.0137993 0.0048425 -0.00916452 
185 1 -8.65568 -8.29022 -1.83207 -0.0383995 -0.0222058 -0.018702 
191 1 -8.72191 -6.83079 -1.5754 0.00449251 0.00222104 0.0192304 
183 1 -9.78755 -8.894 -2.41004 0.00488389 0.0300308 -0.00931331 
181 1 -10.0379 -10.3525 -2.12597 0.00713234 0.0113416 0.0167107 
202 1 -7.83825 -5.83005 -0.902087 0.0208157 0.0317403 0.021797 
189 1 -10.182 -8.36276 -3.57067 0.0203456 -0.0079545 0.00768519 
194 1 -9.45894 -10.3228 -4.60994 -0.00021582 -0.00975216 0.00712771 
197 1 -10.4623 -9.31759 -4.39324 0.0153164 -0.00797897 -0.0234006 
418 1 -5.87092 -8.53365 -5.63312 0.0193995 -0.0139007 -0.00836431 
414 1 -6.14232 -7.12267 -5.79877 0.0143497 9.02235e-05 -0.0217287 
187 1 -9.4664 -10.981 -3.2369 0.012512 -0.00590285 -0.00012057 
198 1 -9.85989 -7.04265 -3.70346 0.0172682 -0.0125742 0.00471666 
408 1 -5.74618 -9.17449 -4.1022 0.00222071 0.00938826 0.00423153 
383 1 -11.0935 -5.53842 0.586656 0.0123082 -0.0111021 -0.00945761 
133 2 -10.1805 -6.3822 -4.56908 -0.0916333 0.0218755 0.0345743 
209 2 -11.181 -9.9769 -4.67253 0.024818 0.037085 0.0197163 
136 2 -4.36291 -9.59165 -2.17819 -0.0661206 -0.0530627 0.0124708 
430 2 -4.28203 -8.21744 -3.60265 0.0636479 0.0531857 -0.0288765 
420 1 -4.7957 -9.03889 -3.05672 0.0114569 0.0042494 -0.00160207 
369 1 -11.7943 -11.7473 -0.390036 -0.0156399 0.0046687 0.0188677 
407 1 -8.11922 -4.184 -4.5989 0.00850326 -0.0402948 -0.00359566 
429 2 -8.19987 -3.57273 -5.4883 -0.0400361 -0.0560289 -0.0268021 
399 1 -8.10867 -3.92612 -3.27724 -0.0195103 0.0143581 -0.015066 
417 1 -7.06176 -4.79339 -5.62198 -0.00315758 -0.00609022 0.000584615 
405 1 -6.54409 -6.01712 -6.01611 0.0177317 0.00934848 -0.0508838 
401 1 -7.81841 -3.46104 -1.95102 0.0132128 -0.0206086 0.0561585 
213 2 -10.0004 -5.33931 -2.29208 0.0286525 0.028456 -0.0146333 
426 2 -6.70374 -3.60547 -1.61121 -0.0922016 0.0665341 -0.0161994 
402 1 -8.71639 -2.61411 -1.74612 -0.00308703 -0.00441336 -0.0106491 
400 1 -9.38282 -1.41118 -1.45576 0.0204488 -0.014104 0.0214819 
416 1 -11.4356 0.373169 -2.30304 -0.0163559 -0.0199064 -0.00302896 
406 1 -10.1172 0.878461 -1.7771 -0.00518302 -0.00118501 -0.0165172 
415 1 -9.60498 -0.21796 -0.786502 0.0143753 -0.0313668 0.00778515 
412 1 -9.35739 1.95843 -1.3303 0.000715381 -0.0110614 -0.0150051 
424 2 -10.1718 2.73203 -1.27416 -0.0924417 -0.0203876 0.0810085 
533 2 -10.9234 11.3443 -0.261093 -0.0750323 0.0288619 -0.0129517 
524 1 -6.01209 8.25478 -4.96735 0.0192271 0.00874328 0.0292741 
395 2 -10.3989 -4.85505 1.21738 5.37559e-05 0.0431915 -0.0568916 
513 1 -10.0474 11.3302 -0.856001 0.0150916 0.0144843 0.00610701 
528 1 -9.51568 7.54669 -5.05854 -0.00474867 -0.0102935 0.00892532 
526 1 -10.569 8.59737 -4.90187 -0.0108895 0.0156665 -0.00734041 
538 2 -10.822 9.25363 -5.56234 -0.0261158 -0.038793 -0.0483933 
508 1 -6.92553 10.0886 -4.24458 0.000960045 -6.43144e-05 -0.0124082 
516 1 -8.07985 7.8206 -4.85516 -0.0041359 0.0117451 -0.0196898 
510 1 -7.88444 9.12016 -4.12628 -0.00333329 -0.00775708 0.00986308 
515 1 -10.3703 9.31692 -3.62025 -0.0100931 -0.00189448 0.00120202 
509 1 -9.02577 9.75793 -3.39939 -0.00782004 0.00851295 -0.00141022 
525 1 -11.3386 10.3429 -3.02254 -0.0186679 0.0317373 -0.00838832 
506 1 -6.83357 11.1169 -3.35375 0.000369476 0.00862268 0.00799665 
505 1 -7.85097 11.4554 -2.31611 0.0146268 -0.0147482 0.0298276 
507 1 -9.06862 11.0433 -2.8073 0.0233833 0.0240568 0.0232275 
522 1 -10.4488 11.0309 -2.19591 -0.00850363 0.00870675 -0.00139633 
532 2 -3.3641 11.5404 -3.57362 -0.00226598 0.0121022 -0.00316 
514 1 -5.41563 9.48409 -4.71765 0.0353887 0.0176021 0.0144854 
523 1 -4.28646 9.84841 -4.27662 0.0261141 -0.00212194 0.015095 
512 1 -5.57196 11.6525 -3.02329 0.0232045 -0.0132064 -0.0136694 
520 1 -4.40111 11.1331 -3.43537 0.0371766 -0.0118387 -0.00464214 
159 1 -6.03716 -5.58796 6.93086 0.0288545 0.0177412 -0.0156245 
190 1 -7.60044 -10.6946 0.63363 -0.0281967 0.00540914 0.000791794 
200 1 -6.44262 -10.0662 1.17742 -0.00973174 0.000966683 0.000533083 
366 1 -11.8614 -8.12625 0.364862 -0.0294852 0.0194319 -0.00324817 
203 1 -6.34328 -8.67575 1.33355 -0.00110218 -0.00806747 -0.0109804 
215 2 -5.92127 -8.29935 2.12679 0.00243545 0.00244273 0.0411665 
214 2 -7.36599 -5.37995 -1.72851 -0.0208023 0.00554671 -0.0418132 
384 1 -10.7773 -7.36239 2.32589 0.00971264 0.009965 0.0132232 
382 1 -10.3952 -8.75247 2.67533 0.0155222 0.0174943 0.0285414 
154 1 -7.37131 -9.52347 4.87326 0.00622448 0.00300678 0.00788162 
148 1 -6.10325 -9.3004 5.46999 0.0100451 -0.0225075 0.00445257 
175 2 -9.20955 -10.7935 4.2134 -0.0299832 -0.0606058 -0.0280108 
167 1 -8.53892 -9.77149 4.05573 0.0240572 -0.00917173 -0.00639726 
164 1 -9.10648 -8.77924 3.1428 -0.00163601 -0.0211247 0.00735176 
390 2 -8.14185 -7.8972 3.17731 -0.14178 -0.013034 0.0160062 
371 1 -11.2882 -9.94633 2.03081 -0.00493739 0.0146178 0.00506078 
396 2 -10.8917 -6.80932 3.25868 0.0856725 0.0149019 -0.000474439 
372 1 -11.2621 -7.12734 1.05009 0.00441986 -0.00990463 0.0136735 
381 1 -11.4778 -11.4672 2.22212 -0.00835986 0.00944706 0.000358025 
365 1 -11.8666 -9.6644 0.810837 0.0087213 -0.00662306 -0.00393341 
212 2 -5.65233 -10.5316 1.69127 0.0355069 -0.0307536 0.0135899 
380 1 -11.7993 -5.14385 -0.345455 0.00766563 0.0283211 -0.0195039 
156 1 -5.56883 -11.8932 5.14869 0.00453425 -0.00760177 0.0148627 
150 1 -5.0366 -10.6195 5.69369 -0.0350362 0.00748098 -2.56287e-05 
160 1 -7.84475 -6.83517 5.84911 -0.0127473 -0.0180716 -0.000113423 
163 1 -8.81587 -7.16372 5.37957 0.00356052 -0.0296596 0.0124235 
172 2 -10.0127 -7.33135 5.02768 -0.0124688 -0.0236069 -0.0201151 
29 2 -8.03836 -2.35546 3.16212 0.0470803 -0.0359941 0.00998078 
14 1 -8.56987 -2.3877 2.18179 -0.00530711 0.00860126 -0.000267492 
17 1 -8.15526 -1.21871 1.57549 -0.0221836 -0.00686194 -0.00996885 
169 2 -6.88314 -4.85254 7.23903 -0.00491036 -0.0792507 -0.00225841 
425 2 -7.0566 0.420585 5.28637 -0.0825999 -0.0138223 0.0139238 
413 1 -7.94457 1.21001 5.22697 0.0195265 0.00287704 -0.0128006 
422 2 -8.45248 1.1739 6.20375 0.0806515 0.0204087 0.0764983 
427 2 -6.41633 2.73567 -0.194303 0.0331772 0.00840472 0.0609211 
397 1 -8.73348 0.167124 1.5611 0.0127764 -0.00767783 0.0128589 
398 1 -8.70113 0.495202 0.192123 -0.0173745 -0.00386787 -0.0110259 
403 1 -8.37296 1.22523 2.42677 0.018941 -0.002382 -0.0125869 
404 1 -8.57093 1.88617 -0.213046 -0.00269554 0.0104963 -0.0153427 
411 1 -7.25415 2.3116 0.408183 -0.00523084 -0.00806606 -0.011684 
409 1 -7.50639 2.08953 1.70752 0.0208963 -0.0158072 -0.000702385 
423 2 -6.75448 3.0185 2.22895 -0.0310613 0.0540104 -0.0257209 
410 1 -8.62323 1.40623 3.87675 -0.0101973 -0.0155633 0.0147062 
152 1 -6.40396 -6.87312 6.3201 -0.029176 -0.0124365 -0.0268077 
173 2 -1.79562 -8.48716 10.1992 0.0798365 0.0783775 0.060168 
161 1 -2.41519 -8.06856 9.41092 -0.0101238 -0.028771 -0.00985547 
155 1 -4.21369 -11.8063 7.60466 0.00987788 -0.00254064 0.00174247 
149 1 -4.69575 -10.4476 7.14601 -0.0120287 -0.0279168 -0.00935888 
165 1 -3.59709 -11.4919 9.0385 -0.00620735 0.0283538 -0.00156432 
146 1 -5.63726 -8.11109 6.18829 -0.00460399 0.000396167 0.0113634 
147 1 -4.0063 -9.13386 7.42627 -0.0236666 0.00916872 0.010167 
145 1 -4.62777 -7.88084 7.21652 0.00461482 0.0178333 0.0336991 
162 1 -3.00728 -10.4212 9.13928 -0.00763712 0.0221654 -0.0108384 
153 1 -2.89356 -9.09029 8.44613 0.020554 -0.0115911 0.0135496 
151 1 -4.04981 -6.8708 7.81911 -0.0055309 0.00076647 0.0386455 
158 1 -2.79277 -6.81452 9.06108 0.0132304 0.0077366 -0.0365144 
170 2 -2.68755 -5.98658 9.71001 0.0722703 0.038906 0.0310139 
171 2 -5.12739 -5.14725 8.82945 0.00408837 -0.0170553 0.00741213 
157 1 -4.85871 -5.62715 7.87302 -0.020676 0.00216123 0.0128293 
392 2 -11.6884 -4.11462 -0.829844 0.0842706 -0.0219665 -0.0258039 
574 2 -1.20295 -5.18176 12.275 -0.0634485 0.0211757 0.0528745 
352 2 -1.03397 -6.08015 12.0464 -0.0401467 -0.0376934 -0.00707275 
504 2 5.05014 0.735539 35.6444 0.0614178 0.0714105 0.0160082 
251 2 5.15045 27.8739 -5.62959 0.0320678 0.00386437 0.0148369 
247 2 6.29195 25.7645 -7.08071 -0.0472109 0.0258265 0.0177399 
235 1 7.09485 26.2517 -6.26452 -0.0156417 0.0349671 0.00245116 
288 2 -10.8784 30.6365 -6.95667 -0.0731874 -0.0112281 0.0371717 
276 1 -9.7855 31.0995 -7.02495 0.0100426 0.00933428 -0.0309586 
286 2 -10.2282 31.9203 -9.26595 0.111343 0.056104 0.0340792 
264 1 -9.00366 31.6109 -5.87331 -0.0138961 0.00777542 0.0070977 
274 1 -9.41671 31.7326 -8.35967 -0.0117403 -0.00648227 -0.00407998 
258 1 -7.611 32.2635 -6.23626 0.0096928 -0.0131889 -0.0125131 
257 1 -7.07603 32.7375 -7.48832 0.010704 0.018745 0.0110857 
263 1 -8.18779 32.4099 -8.38066 -0.0138637 -0.00155051 -0.0108448 
273 1 -7.70889 32.8362 -9.79586 -0.00470606 -0.00797797 0.0204739 
255 1 -5.68667 32.5771 -7.89195 -0.011777 0.0108735 0.00121244 
253 1 -4.91049 33.2787 -6.82975 0.0143626 -0.0182138 -0.00262961 
285 2 -6.53537 33.7587 -11.2667 0.00650131 0.0238069 -0.00387585 
270 1 -6.60544 33.3075 -10.1937 -0.00845109 0.0203453 0.0384933 
261 1 -5.37322 33.0437 -9.20967 -0.0226689 -0.0112023 0.00868781 
269 1 -4.27048 33.941 -9.37462 -0.00303869 0.00867059 -0.00311109 
281 2 -4.09831 34.7593 -10.2942 -0.0579354 -0.0540173 -0.0203836 
259 1 -4.08052 34.4508 -7.02679 0.0344345 -0.0326817 -0.00915676 
266 1 -3.29191 34.1784 -8.197 0.00851067 -0.0087301 -0.0300538 
530 2 -7.82745 13.3958 0.336549 0.0156885 0.0826444 0.0167954 
517 1 -5.9646 12.729 -1.14282 0.0273888 -0.00177546 -0.0032089 
529 2 -5.89002 13.4092 -0.257457 -0.108822 0.0377828 0.0105626 
518 1 -8.2617 12.8501 -0.356227 0.00549341 0.00525704 0.0172771 
531 2 -4.17709 13.5356 -2.43569 -0.0445168 0.00733175 0.0442678 
519 1 -5.17496 12.8811 -2.32879 0.00627012 -0.0170395 -0.00671415 
233 1 11.7583 26.2621 -0.913396 0.014122 0.00847446 -0.00602031 
244 2 8.97287 25.456 -7.23422 -0.0801424 -0.00335788 -0.0929587 
252 2 4.65539 28.8365 -0.831105 0.040535 -0.0565984 -0.0336857 
240 1 5.34387 27.9303 -0.723176 -0.0215172 0.00515552 0.00444871 
236 1 5.50778 27.9818 -3.49626 0.00165692 -0.00755046 -0.0218768 
232 1 8.43437 25.8205 -6.23331 -0.00268473 -0.0273383 0.00439749 
238 1 6.53422 28.0029 0.182174 0.012174 0.0185391 -0.00450299 
239 1 5.89383 27.5478 -4.85103 0.00799698 0.00561029 0.0111738 
224 1 9.05846 25.5843 -4.97841 -0.0015781 0.0274523 -0.00553798 
226 1 6.8844 26.7326 -4.69113 -0.0193021 0.0173018 0.0134317 
218 1 8.86135 26.1544 -3.76922 0.0176517 0.0114277 0.0162521 
222 1 7.11823 27.1573 -2.28657 -0.00429263 -0.0104361 0.0180761 
228 1 5.81313 28.0072 -2.07908 0.0197683 0.0121919 0.0222711 
220 1 7.57043 26.4993 -3.5496 -0.00609024 0.0199287 0.00619656 
227 1 7.99069 27.7211 0.0216715 0.0370954 -0.00809819 -0.010334 
221 1 8.13513 27.048 -1.30062 -0.0233751 -0.0113308 0.00635098 
217 1 9.89649 26.5703 -2.80986 -0.00745799 -0.0131312 0.00370435 
219 1 9.47723 26.7341 -1.63476 0.00510201 0.0142283 0.0111695 
225 1 10.4515 26.8031 -0.645372 -0.00616805 -0.012265 0.0155251 
243 2 10.1509 24.4558 -6.30747 0.0578743 0.000873617 -0.0605189 
231 1 10.235 24.9758 -5.2926 -0.0140929 0.0107243 0.00208591 
223 1 11.061 25.7415 -3.11362 -0.00917025 -0.0134122 -0.0004938 
229 1 11.0803 24.9067 -4.27941 -0.022375 0.0238108 0.00351426 
275 1 -9.22641 31.3643 -4.45274 0.0181457 7.3799e-05 0.00314741 
287 2 -8.57003 31.173 -2.59403 0.0860562 0.0500227 0.0598154 
272 1 -8.00234 31.1545 -3.59867 -0.00110396 0.000144809 -0.00070298 
262 1 -6.74832 31.4246 -4.00755 -0.0151045 0.0150061 -0.00854082 
271 1 -6.0625 31.9758 -2.54561 0.0142972 -0.00536175 0.0183018 
193 1 -9.27342 35.5579 -3.48763 0.0117618 0.00819954 0.0116205 
208 2 -7.4593 34.0962 -0.291789 -0.0791996 -0.0328347 -0.0515893 
207 2 -7.33571 35.146 -2.27495 -0.0682377 0.109545 0.0146553 
196 1 -7.58166 35.1105 -0.263942 0.0146035 0.0159359 0.0115666 
195 1 -8.49447 35.2151 -2.31454 -0.00786765 -0.00599104 -0.00933941 
188 1 -8.92148 35.7371 -1.11257 -0.0295356 0.0154086 0.00719772 
256 1 -6.73694 32.1979 -5.10606 0.00427951 0.0169549 0.00469292 
254 1 -5.63484 32.9495 -5.7458 -0.0214173 0.0135617 -0.00510283 
205 2 -9.2572 35.1033 -4.48002 -0.00534585 0.00788162 0.0532772 
280 2 -4.99385 33.4051 -2.10611 0.0113114 -0.00604703 -0.0595402 
268 1 -5.3407 33.1054 -3.09139 0.00390294 0.00808808 -0.0338448 
210 2 11.2417 17.5554 4.64725 0.0262393 0.03442 -0.0569113 
260 1 -5.38249 33.8138 -4.4868 -0.000962278 -0.00629239 -0.000788377 
265 1 -3.80847 35.3761 -5.85212 -0.0239517 -0.00378724 -0.0258907 
267 1 -4.46213 34.9109 -4.65606 0.00832347 -0.025943 0.00635591 
216 2 11.7524 20.2706 6.70699 0.0195462 0.0956663 0.116382 
345 1 10.9502 19.4347 6.94691 0.00108838 0.016263 0.0240892 
358 2 8.59003 21.5686 6.42094 0.012681 -0.0218223 -0.00161121 
346 1 8.59698 20.2006 6.59338 0.00525659 -1.13515e-05 0.0209853 
357 2 6.48565 28.2784 1.43449 0.0333204 0.0292258 0.0416603 
237 1 9.00406 27.5026 1.06016 -0.00515836 0.0148773 -0.028818 
249 2 8.69971 27.9872 2.2005 0.00506355 0.00743214 -0.0760376 
246 2 10.8743 27.3101 1.40258 0.0241061 0.0625916 0.104002 
234 1 10.2536 27.192 0.590347 -0.0170817 0.0162698 -0.00293935 
199 1 -7.45081 35.989 0.777728 0.0326899 -0.00314669 0.00252133 
521 1 -9.39447 12.1572 0.294497 -0.0189927 -0.0121885 0.0043416 
378 1 -11.9968 35.991 0.981961 -0.0102616 -0.00383075 0.0265604 
211 2 -6.9204 35.5136 1.44754 0.108825 -0.0705812 0.067474 
168 1 -4.63525 35.0662 5.61478 0.00202541 0.0115381 -0.0111846 
351 2 9.57357 12.2739 10.0481 0.0348098 -0.0350854 -0.0601951 
339 1 9.353 13.2082 9.51011 -0.00312995 -0.0261262 0.000250809 
343 1 5.97695 15.4208 9.59334 -0.00431562 -0.0149101 -0.0316192 
337 1 10.6871 13.7536 9.59339 0.0254996 -0.00854247 -0.00634742 
329 1 9.24975 17.8262 7.76362 0.00080607 0.0183738 0.000465451 
333 1 11.7193 17.4464 7.97237 -0.0119044 -0.00821449 -0.007391 
325 1 9.79091 15.7935 8.48132 0.00140646 0.0236331 -0.00231952 
331 1 11.0192 15.0489 8.89425 0.0167359 -0.00726037 0.00770556 
327 1 10.3421 17.1301 8.17476 0.00855447 0.00833479 -0.00722402 
334 1 6.13638 16.1784 8.44779 -0.0193464 -0.0144414 -0.019107 
326 1 8.50656 15.3802 8.57842 0.0188015 -0.00258288 0.00313882 
332 1 8.15038 14.0906 9.26794 0.00685144 -0.00861028 -0.00569375 
328 1 7.52706 16.2438 8.06233 -0.0158844 0.00781888 -0.0188593 
330 1 7.83737 17.5474 7.77448 0.0118148 -0.00163373 -0.0188271 
340 1 6.81664 14.1508 9.90311 0.00326483 0.0190888 -0.00034332 
349 2 11.2784 12.8339 9.37191 0.0361615 -0.029699 0.053365 
344 1 5.03368 17.2667 8.1837 -0.0108588 -0.0133607 -0.0181092 
356 2 4.07234 16.7508 8.30982 -0.0206286 0.0841122 -0.0298455 
359 2 4.67218 19.3981 7.51607 -0.0835092 0.0342035 -0.00312734 
347 1 5.52656 18.462 7.76694 -0.0115158 0.00610042 -0.0105547 
284 2 11.4597 17.7502 5.29033 0.0048824 0.128463 -0.0287966 
336 1 7.0484 18.5583 7.36562 0.000579038 0.00195517 -0.0107537 
335 1 9.56657 19.2404 7.05851 -0.0204394 -0.00167801 0.000633696 
360 2 6.93562 20.4281 5.77746 0.051174 -0.0890471 -8.591e-05 
348 1 7.37694 19.5423 6.39498 -0.00449234 0.0060716 0.0153115 
178 2 -3.82978 34.2972 7.62845 -0.027098 -0.11697 -0.0959932 
166 1 -4.20017 35.1028 7.08219 -0.00791989 0.0138519 0.00210685 
174 2 -3.31321 35.6309 9.62682 -0.094648 0.0822012 -0.0150093 
279 2 -3.91951 35.7389 -3.77544 -0.0188707 -0.0433332 -0.0407944 
180 2 -6.13684 35.9399 4.20084 0.0448965 0.0899854 0.0214389 
495 2 -11.7264 34.9196 1.51655 -0.00502335 -0.00764582 0.0162426 
393 2 -11.2386 35.8345 2.95596 -0.100398 0.0155708 0.00858894 
511 1 -7.25168 12.068 -1.03512 -0.004744 -0.00434491 -0.0341598 
230 1 11.9232 25.9333 -2.22631 -0.00517708 0.00245399 -0.0258199 
87 1 7.70744 34.747 29.8291 -0.000443759 0.0432856 0.0254309 
80 1 8.71163 34.3571 29.3436 0.00202799 -0.0334674 0.0139648 
100 2 9.22945 34.2555 28.3491 0.0439868 0.0783947 0.0997495 
85 1 6.64443 35.2374 30.425 -0.00162452 -0.0386375 -0.00817231 
99 2 6.17246 35.9677 30.9813 -0.0379335 -0.0273253 0.0179149 
551 1 16.2158 -10.9105 -0.848582 0.00961852 0.00929476 0.0150755 
573 2 15.4219 -9.20736 -0.67923 -0.0298358 -0.0194513 0.0248879 
561 1 15.1978 -10.1907 -0.201309 0.00523031 0.000773338 0.00872862 
562 1 17.511 -10.062 -0.564671 -0.00753051 0.00168907 0.033216 
421 2 17.3356 -10.3196 0.59401 -0.0992039 0.017979 0.0358752 
385 2 16.9827 -9.2176 -0.880826 -0.100539 0.0581245 0.0540122 
576 2 19.6371 -10.5897 -1.26966 0.0418828 -0.0742192 -0.0291017 
564 1 18.835 -10.9444 -0.693567 -0.0177149 0.0121765 -0.00337148 
570 2 13.2163 -11.0426 0.404255 0.0114809 0.0709138 -0.115238 
558 1 14.1978 -10.891 0.530617 0.0198557 -6.23319e-05 -0.00113866 
557 1 16.4168 -10.7686 3.59756 -0.0223028 0.0149666 0.00131738 
549 1 15.3382 -11.4877 1.53894 -0.00783995 -0.019326 0.00294513 
554 1 15.565 -10.7505 2.52013 0.031838 -0.0160508 -0.0154133 
566 2 16.0785 -10.4256 4.69431 -0.0350821 -0.0488539 -0.0817212 
241 2 12.0299 24.194 -4.2376 -0.0651426 0.0195478 -0.0365945 
342 1 12.1533 18.6909 7.45268 -0.0043088 0.00492695 0.0132407 
242 2 13.0015 25.5879 -2.5064 -0.050432 -0.0290945 -0.0341923 
245 2 12.2577 26.9405 -0.0578371 -0.0106047 -0.110328 0.0238774 
350 2 13.0142 15.4971 9.9476 0.0410189 -0.0571427 -0.0287486 
353 2 13.8004 17.3786 9.00069 -0.00668978 0.0393214 -0.046046 
543 1 16.113 35.4141 0.798046 -0.0122445 -0.00975353 0.00992412 
546 1 18.0758 35.8986 -0.339576 0.0152393 -0.0160327 0.0156398 
563 1 21.2462 35.0916 -3.44634 -0.0129277 -0.0156697 -0.00219662 
552 1 20.4585 34.8622 -2.41849 0.0153476 0.0258996 -0.0117055 
560 1 20.2024 34.5357 -1.26373 -0.00555451 -0.0139172 0.00150662 
354 2 12.99 18.9343 7.96966 0.0201565 0.00351228 0.0267223 
542 1 18.1778 33.9351 1.51363 -0.0117282 0.0261547 0.0177592 
548 1 17.7141 31.779 2.70483 0.0218424 -0.00237201 -0.00381975 
553 1 16.2618 31.8058 2.48238 0.00440075 -0.00914711 -0.013187 
541 1 16.6876 34.3728 1.66654 -0.00237407 0.0112391 -0.029354 
565 2 15.8927 31.4863 3.58479 0.0159984 -0.0609004 -0.0930549 
547 1 15.9675 33.0951 1.7978 0.0280768 -0.0121753 -0.00144271 
567 2 17.9215 30.6428 3.13499 -0.0403314 0.020421 0.034592 
569 2 14.9664 33.3549 1.73217 0.0133862 -0.072099 0.0203103 
571 2 21.6748 32.5453 0.44492 -0.0552725 -0.0173489 -0.027952 
550 1 19.9463 33.9681 0.240235 -0.00873304 0.0198698 -0.0180795 
559 1 20.7161 32.9135 0.770184 -0.00781338 -0.0158558 -0.00947424 
556 1 20.0121 32.1245 1.72271 -0.00507523 0.000702446 -0.0237953 
555 1 18.6789 32.7003 2.07571 0.00396219 -0.0133272 0.0105976 
568 2 19.8899 31.3862 2.50175 0.01915 0.0637396 -0.0391558 
544 1 18.7482 34.6622 0.446947 -0.00633973 -0.0150593 -0.0119424 
341 1 12.74 16.9109 8.90562 0.0101602 -0.0155018 0.024073 
338 1 12.1078 15.8737 9.51722 -0.0126794 -0.014535 -0.00100223 
545 1 16.5891 35.8883 -0.415869 -0.00532872 0.0093421 0.0128701 
572 2 21.422 35.9119 -4.02546 0.0547184 -0.0525938 -0.00523997 
179 2 37.2137 -2.62102 24.0875 -0.0109152 0.0185909 0.0757351 
539 2 37.1115 -2.00872 23.559 0.060429 0.0418638 -0.0276589 
250 2 38.6099 -9.4909 32.6906 0.0627908 0.0110572 0.0690369 
77 1 43.3326 18.5318 0.480988 0.0170362 -0.01272 -0.0051018 
70 2 59.4684 33.0372 -6.73261 -0.0455349 0.0253094 -0.0702605 
58 1 59.5427 30.2328 -8.6239 -0.021448 -0.0175952 -0.0053571 
62 2 57.2967 29.0374 -9.21282 -0.00134099 -0.0645038 -0.0817569 
45 1 56.8986 29.464 -10.2256 -0.0151006 0.014384 0.0166151 
53 1 56.426 28.9413 -11.3751 0.0245349 0.00270029 -0.00284723 
575 2 40.3026 32.7641 -8.43149 -0.0529272 0.0142416 -0.0118604 
39 1 57.8081 30.4739 -10.8203 0.00411362 0.0310847 0.00574776 
41 1 58.6987 30.8703 -9.87113 0.00271485 -0.00383913 -0.0328611 
42 1 59.0995 32.361 -9.90142 0.0306975 -0.012823 0.011325 
40 1 59.4145 32.0011 -11.4617 0.00214739 -0.0369386 0.00364904 
104 2 40.4439 14.2169 -1.66703 -0.0290199 0.0742289 -0.0510688 
91 1 38.8868 16.0758 -1.22275 -0.00132768 -0.00717761 -0.0201391 
88 1 37.8158 15.8109 -1.20096 -0.00711663 -0.00747715 0.00258883 
82 1 40.3532 16.4576 -1.15706 0.0259687 0.00809638 0.0137772 
76 1 41.2026 17.5125 -0.776785 -0.0152369 -0.00176289 -0.0299037 
107 2 42.6729 15.3356 -2.11673 0.0967784 -0.0166413 0.0353355 
84 1 42.7962 15.8894 -0.0102267 -0.0237657 0.0259045 -0.00427605 
79 1 41.7762 21.6027 -0.744426 -0.00441334 0.0083569 0.0261575 
97 2 41.677 22.009 -1.70651 0.0297241 0.0520938 0.0425824 
355 2 41.6265 18.7348 -2.6587 -0.0469397 -0.00774267 -0.0764283 
74 1 41.7013 18.8277 -1.46263 0.011763 -0.0175528 -0.00413834 
73 1 42.0426 20.0199 -0.477823 -0.0194644 -0.00573481 0.00101794 
103 2 37.6487 15.0765 -2.09352 0.0858035 0.0088408 -0.10621 
98 2 41.3344 23.378 0.0358697 0.0579807 -0.0520911 0.069507 
86 1 41.3662 22.2624 0.367327 0.00801947 0.0130101 0.0225914 
92 1 40.8832 15.1235 -1.1489 -0.0159723 -0.00563761 -0.013279 
78 1 42.6853 17.4512 -0.230686 -0.0101841 -0.00731459 0.00920026 
94 1 44.5297 16.4595 1.71772 -0.0155192 0.0426464 0.00252537 
96 1 44.0769 15.8636 0.543091 -0.0264531 -0.0100568 0.0212995 
106 2 45.2692 15.9675 2.33731 0.117463 -0.105927 -0.00145225 
95 1 42.3386 14.9572 -1.09058 0.0238113 -0.00501439 -0.01843 
101 2 41.6636 22.7012 2.56589 -0.0563474 -0.0173456 -0.0393967 
81 1 42.7707 20.8715 1.75119 0.0198248 -0.0107065 0.00188476 
90 1 43.4226 20.1393 2.83942 -0.0205675 0.0154409 -0.0129471 
89 1 41.9165 21.9203 1.80501 -0.00878009 -0.00900149 0.0053693 
93 1 44.1232 18.9015 2.91663 -0.00057397 -0.0178952 -0.00973741 
102 2 45.0765 18.6855 3.6718 -0.0235792 0.0467628 -0.0558466 
75 1 42.8917 19.9976 0.506161 -0.0172963 -0.00186897 -0.00408375 
83 1 43.8955 17.9997 1.76191 -0.0113075 -0.00703452 0.00218064 
466 2 57.639 24.7751 18.5328 0.046357 0.039683 0.129129 
537 2 57.8418 21.7242 13.5345 -0.0338248 -0.063247 -0.027952 
540 2 58.4945 21.4947 13.8664 0.00908142 0.0123752 0.00662461 
38 1 58.7976 31.4017 35.4859 -0.00672894 0.0069112 -0.0123364 
33 2 48.7767 27.3787 19.3193 -0.0602804 -0.0534358 -0.0303721 
441 1 59.8647 21.4466 24.2565 0.0113755 0.00213709 -0.00887922 
439 1 59.7336 22.5864 27.1757 0.0108812 0.00497431 0.0325226 
445 1 59.6556 22.0247 28.514 -0.00555094 -0.000104944 0.0247765 
446 1 58.7932 22.6343 26.019 -0.022091 -0.0214938 -0.0156423 
449 1 58.683 22.2283 24.7501 0.00308299 -0.0191711 0.00228034 
458 2 58.079 22.7796 23.8894 -0.0236499 -0.0365885 0.00200971 
457 2 59.2666 21.1812 29.1837 -0.0578037 -0.0171577 -0.10364 
43 1 57.3477 29.5759 34.8647 -0.0320138 0.00361858 0.00242341 
65 2 55.5603 28.257 34.4359 -0.0232912 0.0313511 -0.0499774 
50 1 56.1082 28.8435 35.2896 -0.021895 -0.0249017 0.00131355 
61 2 58.2233 29.4923 32.6423 0.00695201 0.0306475 0.0231343 
44 1 59.3235 30.6445 34.0328 0.00156896 -0.00211887 0.00236085 
105 2 58.6167 24.5925 18.4524 -0.0112873 0.118342 0.00263957 
49 1 58.0388 29.8839 33.6483 -0.00492937 -0.0131154 0.0127963 
37 1 57.6968 30.6279 35.6622 -0.00269848 -0.00819316 0.0193471 
15 1 73.7102 -11.367 -11.4381 -0.0330191 -0.0181114 -0.00481151 
1 1 76.443 -9.76424 -9.47264 0.0042753 -0.00707836 -0.0144287 
7 1 75.9545 -10.0711 -10.4349 0.0040106 0.00404602 0.0245295 
26 2 74.4192 -9.04754 -7.37322 -0.0273907 0.01314 0.00695629 
2 1 76.8128 -8.33074 -8.85064 -0.0222764 0.0272574 0.0106139 
9 1 75.0857 -8.33034 -7.03413 0.0294558 0.00834763 -0.00704974 
3 1 76.112 -7.25336 -7.87783 0.00155083 -0.01492 0.00778396 
18 1 75.3431 -7.38851 -5.89588 -0.0122438 0.00213355 -0.0389536 
11 1 77.2351 -6.07828 -5.92258 -0.00919282 -0.00839424 -0.00109958 
5 1 77.4167 -6.76779 -7.3087 -0.0125633 0.00458802 0.0270569 
534 2 83.6392 9.9303 -2.81635 0.0455777 0.0561699 0.0327502 
31 2 80.1549 -10.5929 -11.9889 0.0269775 0.093912 -0.0404966 
13 1 75.1401 -11.1076 -11.419 0.0177345 0.00621937 -0.00170855 
35 2 81.9309 -7.62655 -7.0182 0.00797862 -0.05667 -0.000938532 
6 1 78.6209 -6.72193 -8.08872 0.000243697 0.00764312 0.00618709 
12 1 79.7846 -6.81548 -7.1711 0.0303823 0.010912 -0.0184749 
4 1 78.1062 -7.83548 -9.14424 0.00737909 -0.00728103 0.0320051 
23 1 81.1116 -7.29953 -7.73644 -0.0145955 -0.00170133 0.00711033 
10 1 79.4038 -8.03333 -9.94018 0.000560501 0.0261606 0.00400109 
20 1 80.6798 -7.84651 -8.9726 -0.021915 0.00575229 0.00560631 
19 1 79.3527 -9.1823 -10.7781 0.0181036 -0.0117848 -0.0142353 
32 2 81.546 -7.78966 -9.68331 -0.0157555 -0.00478495 0.0129949 
24 1 79.7696 -6.083 -5.92793 -0.00833945 -0.00721419 -0.00364517 
36 2 80.6945 -5.87214 -5.65414 -0.0919187 0.00644403 0.0814011 
21 1 76.1432 -6.47212 -5.16435 -0.0134739 -0.00558219 0.0230128 
388 2 81.1494 -8.36373 -4.59387 -0.0381144 -0.0216183 0.051674 
367 1 83.1965 -10.8551 -3.14973 0.0075439 -0.0133199 0.0106282 
376 1 82.3303 -6.47913 -3.39873 -0.0144828 0.0105429 0.000963911 
375 1 81.8066 -8.98521 -3.87001 0.0306576 -0.0109479 -0.030528 
362 1 83.1042 -8.49199 -1.8998 -0.0076821 -0.0166787 0.0177601 
368 1 82.098 -7.90646 -3.0789 0.007523 -0.000280278 -9.90113e-05 
361 1 83.2002 -9.82461 -1.88997 -0.000234614 0.0270929 -0.0414059 
373 1 82.3003 -10.2444 -4.10834 -0.017941 0.0129235 0.00655832 
387 2 82.014 -10.7858 -5.05742 0.00291766 -0.0345093 0.00257049 
364 1 83.6538 -7.71962 -0.861464 0.00790029 0.00619172 0.00588397 
370 1 83.5246 -6.27832 -1.2111 -0.0237629 -0.000225585 0.0123635 
431 2 82.9045 1.84152 -2.01263 0.0230339 -0.0747426 -0.060991 
30 2 76.2424 -6.49026 -4.08053 -0.0177158 -0.0335235 0.0554787 
22 1 78.6755 -5.76533 -5.24985 0.00885839 0.0085782 0.00177847 
379 1 83.3338 -5.73435 -2.57697 0.0321175 0.0293087 -0.0144965 
34 2 78.5446 -4.99944 -4.28378 -0.0518159 0.0478153 -0.0078894 
391 2 83.4266 -4.54854 -2.1386 0.0558231 0.0149667 0.0787285 
428 2 82.3784 -0.343414 -2.32191 0.0544674 -0.0243283 -0.0467537 
419 1 83.1508 0.712391 -2.18167 -0.00687074 -0.0189883 -0.00146677 
394 2 69.7721 -9.07281 3.70984 -0.0578845 0.13239 0.0458042 
177 2 75.1726 -6.76636 -7.81604 -0.148156 0.113407 -0.000518252 
363 1 83.8022 -10.3696 -0.580787 -0.00727817 -0.00234028 0.00593672 
144 2 69.9164 -9.54054 3.85204 -0.0360681 -0.0525752 -0.0815841 
16 1 79.2358 -10.2092 -11.5303 -0.00261669 -0.0146423 0.0195407 
298 1 77.5645 -10.1282 16.7879 0.00130431 -0.0234868 -0.0249491 
308 1 76.4541 -10.0331 17.7401 0.011566 0.0128833 0.00300039 
292 1 77.3527 -11.2592 16.0509 0.0102089 0.00325752 -0.0239898 
307 1 77.8707 -8.86174 16.1213 0.01269 -0.00313284 0.0115566 
319 2 77.108 -8.01111 16.3673 0.111869 -0.0391253 -0.0130015 
320 2 75.7327 -8.94454 17.7118 0.0215053 -0.00233733 0.00876794 
296 1 79.3867 -10.491 15.4822 -0.002834 -0.0325439 0.00701991 
290 1 78.4545 -11.8374 15.4187 0.0301646 -0.0218787 -0.00854538 
503 2 75.5181 11.12 25.666 -0.0651968 -0.0446529 -0.00145968 
303 1 80.4081 -11.0509 16.0912 -0.0222088 0.00964535 -0.01643 
315 2 81.1337 -10.4143 16.4931 -0.000277478 -0.00273185 -0.106692 
304 1 79.0917 -9.04285 15.6296 0.0043073 -0.0364784 -0.0116187 
316 2 79.9334 -8.33266 15.156 -0.0238275 -0.0197428 0.026722 
139 2 78.8352 -10.2833 31.0018 0.0231911 -0.00543793 0.0183687 
324 2 76.0261 -11.632 20.3468 -0.0841001 -0.0327476 0.00401399 
312 1 75.1427 -11.1693 19.7552 0.0278631 0.00356215 0.0131641 
311 1 75.9451 -11.1361 18.5367 0.00731492 -0.00406115 -0.00269328 
28 2 78.2909 -10.3731 35.8265 -0.0456134 0.0250744 0.0448411 
494 2 81.8252 5.49408 23.0701 0.0273758 -0.0364796 0.0127736 
482 1 80.7485 5.58793 23.4519 -0.00493818 -0.0203475 0.00556547 
498 2 80.191 3.72604 24.0388 -0.112753 -0.029066 -0.0257005 
485 1 79.7689 4.71172 23.865 0.00177838 0.0278895 0.00381104 
502 2 67.8817 9.62668 24.3787 0.0715278 0.048068 0.0185138 
486 1 68.9284 9.2642 24.0408 0.0160267 0.00976982 -0.00177721 
489 1 69.7458 8.61027 23.7291 -0.0175084 -0.022452 -0.00690557 
490 1 71.973 8.95559 24.7427 -0.00514529 0.00676525 -0.0165954 
493 2 80.0966 9.94042 21.5376 -0.0408039 -0.0620774 -0.0497637 
475 1 80.3962 6.60759 22.4691 -0.00299947 0.00754618 -0.0172421 
108 2 81.0771 6.20303 21.5642 0.0505399 0.0127398 -0.0649005 
483 1 79.5225 9.39424 22.2692 -0.0129221 -0.00885984 0.0312875 
469 1 79.0559 7.08984 22.5735 0.0146677 -0.00194828 -0.00248207 
481 1 78.5971 8.36536 21.9306 0.0146751 -0.00907472 -0.00891803 
501 2 78.049 3.58151 25.697 0.0278141 -0.0647639 0.0221721 
500 2 75.9935 4.34506 26.2157 -0.0327439 -0.0267516 -0.0445524 
488 1 77.5867 4.22644 24.8724 0.0255429 -0.0100158 0.00181988 
477 1 78.3732 4.97401 23.8571 -0.0174329 0.00862854 -0.0261144 
491 1 76.2632 4.89831 25.1522 0.0140407 -0.0218196 0.014123 
492 1 71.1926 8.17621 23.5883 -0.00410391 0.00655252 0.0305931 
476 1 77.6715 8.85605 23.1329 8.39316e-05 0.00413622 -0.0363838 
473 1 74.1889 9.1286 25.2 -0.00593535 0.00111285 -0.00890983 
497 2 76.4225 7.18325 26.0827 -0.0231428 0.0261099 -0.00308124 
480 1 72.9217 9.17324 25.5176 0.0242544 -0.02387 0.0222952 
479 1 76.9128 6.97048 23.9241 0.0181088 -0.0211667 -0.00431264 
474 1 76.7792 6.35658 25.3563 -0.00674107 -0.0095655 -0.0354841 
470 1 76.3878 8.38394 23.747 0.0104614 -0.0100871 -0.0223194 
472 1 75.5856 9.22375 24.7126 0.0100498 0.00249761 0.00626587 
484 1 77.7844 10.0693 23.8843 -0.00160124 0.00352565 -0.00730294 
478 1 76.2781 10.2512 25.4634 0.0273766 -0.0213452 0.0087878 
124 1 78.3841 -11.103 31.0682 -0.0171746 -0.0343451 -0.00702386 
487 1 77.3407 11.0851 24.7644 0.00889488 -0.00722872 -0.0140587 