ITEM: TIMESTEP
640000
ITEM: NUMBER OF ATOMS
576
ITEM: BOX BOUNDS pp pp pp
-1.2000000000000000e+01 8.4000000000000000e+01
-1.2000000000000000e+01 3.6000000000000000e+01
-1.2000000000000000e+01 3.6000000000000000e+01
ITEM: ATOMS id type x y z vx vy vz 
571 2 11.1517 2.17159 9.11503 0.0494846 -0.0428124 -0.0193804 
573 2 11.0989 -2.32491 1.90429 0.0175416 0.00258921 0.0829811 
562 1 11.5484 -2.67514 4.64618 0.000886774 0.00416556 0.0064599 
570 2 12.0005 -0.914893 0.321773 0.0457324 0.00354076 -0.00680049 
564 1 11.7344 -3.68097 5.30079 0.0229375 0.014598 -0.0192435 
576 2 11.4693 -4.72908 4.89755 -0.0462678 -0.0332827 -0.102901 
558 1 11.8652 -0.443542 1.37053 -0.013272 -0.0152371 0.00827346 
551 1 11.2869 -1.49361 3.86459 -0.000736861 0.00271801 0.00841972 
566 2 11.2368 3.14648 -0.271551 0.0290346 -0.0661678 -0.034296 
121 1 -2.74815 2.41895 6.3853 -0.00511272 -0.0265738 0.0240951 
123 1 -2.71129 3.81306 5.93917 -0.0103136 0.0143888 0.0220056 
116 1 -1.33872 4.60893 5.96077 -0.008318 0.00322869 0.0100948 
110 1 -0.30703 3.95314 6.51464 -0.0312006 0.0229331 -0.00162559 
124 1 -1.09529 5.44705 4.76682 -0.0027412 0.000845741 0.0113654 
139 2 2.55888 4.62121 5.41849 -0.00269803 -0.0589451 0.036738 
118 1 1.46023 5.08597 5.16326 -0.00125501 -0.0163835 -0.00497366 
553 1 8.40945 2.61912 4.53913 0.00100141 0.00867766 -0.00497928 
547 1 9.22689 1.89505 3.63948 0.0143781 -0.00588467 -0.0115725 
542 1 10.3485 1.1663 5.73202 -0.00155962 -3.27692e-05 -0.00828713 
548 1 9.03222 3.09201 5.7972 -0.00831639 0.00284291 0.00569312 
541 1 10.5168 1.63913 4.40062 -0.000650016 -0.00879143 0.000401491 
543 1 11.5601 1.03089 3.70755 -0.00999308 0.017002 -0.0129143 
565 2 7.31462 3.02005 4.36418 -0.0577732 -0.0512067 0.0333733 
569 2 8.88725 2.41871 2.6374 -0.0693582 0.146021 -0.0116619 
568 2 10.1955 3.08148 5.68362 -0.00237956 0.00766532 0.035737 
549 1 11.7715 0.830446 2.09914 -0.0160117 -0.0110096 0.000307843 
136 2 -1.88734 5.95412 4.21042 0.0763879 -0.00411689 -0.0267827 
127 1 0.261837 5.69345 4.55051 -0.0120891 -0.00528075 0.01151 
177 2 0.343558 6.74458 3.96348 0.0665279 0.0343386 -0.0640737 
138 2 1.74429 0.2041 10.6464 -0.0368318 0.0398569 0.0519368 
137 2 -0.439316 -0.698737 9.69217 0.0171667 -0.0364025 -0.00798244 
134 2 -1.67948 -0.427278 7.58372 -0.039024 -0.0946046 0.0292241 
115 1 -1.82008 1.69285 7.40586 -0.00208081 0.021763 -0.00405383 
122 1 -1.37622 0.362126 7.92705 -0.00580272 -0.00854327 0.0280215 
109 1 -0.687002 2.65258 7.27018 0.00876023 -0.02273 -0.00809087 
126 1 1.56579 1.29623 10.2129 -0.00115925 0.0103301 0.00210357 
141 2 2.91471 2.1252 11.3003 0.0927183 -0.0857841 -0.0484823 
125 1 -0.553778 0.325361 9.1748 -0.0193156 0.014663 -0.000699374 
117 1 0.509105 1.30208 9.19861 -0.00700531 -0.00178147 0.00388252 
112 1 1.1091 4.59126 6.76339 -0.0371583 -0.0281069 -0.0140609 
111 1 0.454803 2.45029 8.10588 0.00117985 0.0118838 -0.00577123 
113 1 1.60767 3.34782 8.54134 -0.0240026 -0.00806586 0.0301596 
129 1 2.66912 2.28505 10.2968 -0.0116777 0.0482091 0.0171009 
119 1 2.56208 3.60014 9.78148 -0.0217075 0.0339583 -0.0250393 
114 1 1.85606 4.6443 7.88833 -0.0358137 0.00647748 -0.00311946 
120 1 3.30049 5.14288 7.67278 -0.0404741 -0.00836129 0.0199615 
132 1 4.19124 4.94818 8.54896 0.00374073 -0.0118466 0.00853016 
142 2 5.09327 4.20231 10.0297 -0.0484674 -0.101058 0.00186758 
130 1 4.05927 4.09701 9.48583 0.00988264 0.0181202 0.0335842 
555 1 9.39273 1.85949 6.81405 0.0116181 -0.0208126 0.00315174 
561 1 11.4549 -1.37358 2.3663 0.0148898 -0.00848683 0.00358842 
567 2 8.32693 3.82493 6.42798 0.00708608 -0.0614415 -0.0395905 
544 1 11.4527 0.615585 6.33109 0.010313 0.0324502 0.00255906 
556 1 9.74066 1.38142 8.20007 -0.0134953 -0.0217519 0.0218478 
559 1 10.995 1.1506 8.92419 -0.000365971 -0.00924293 -0.00988326 
140 2 1.62553 6.84552 6.58392 0.0244315 0.0625585 0.0384302 
128 1 2.36855 6.27797 5.9367 -0.00495805 0.000309232 -0.00431543 
131 1 3.70783 5.79094 6.27768 0.00237176 -0.0170802 -0.00651595 
143 2 4.27781 6.55092 6.63585 0.0673967 0.00319702 -0.119994 
557 1 11.6813 3.22794 0.780035 -0.0210176 0.00458003 0.011413 
496 2 -11.1873 14.2252 8.68739 0.0458638 -0.0699863 -0.00631154 
283 2 -5.01684 19.4234 26.4692 -0.00862661 -0.0773407 -0.0495961 
278 2 -5.04694 20.1593 26.09 -0.0363552 -0.0267573 -0.153943 
159 1 28.4481 -11.6231 -9.7818 0.000753932 -0.00144748 -0.0222355 
172 2 27.0193 -9.16043 -10.6811 0.014793 -0.0447597 0.0370075 
160 1 26.9565 -10.2111 -11.1387 0.0136195 -0.00819003 -0.00496394 
152 1 28.0216 -11.3154 -11.167 -0.011915 -0.00686862 0.0197273 
169 2 27.6807 -11.26 -9.10091 -0.0933338 0.028711 -0.0172703 
572 2 15.4059 -1.45237 10.1281 0.0149716 -0.0129495 0.0528565 
270 1 35.2997 -8.35928 -4.89391 -0.0118665 0.011339 0.00736257 
464 2 16.6877 -4.93752 0.950927 -0.151147 0.136542 -0.0125327 
64 2 16.3386 -5.44727 1.32674 -0.0107965 -0.0876273 0.0899216 
263 1 33.6936 -8.49936 -3.24681 0.0104345 0.0134357 -0.00571413 
258 1 32.9088 -6.55382 -1.71004 0.0151129 -0.028597 -0.0249156 
264 1 32.0676 -7.47609 -1.10115 0.00782719 0.0225025 0.017392 
288 2 31.5588 -9.33967 -0.776096 -0.0761685 0.00288436 0.0385214 
276 1 31.9904 -8.73239 -1.57374 0.0150483 0.0231881 0.00519291 
274 1 32.3152 -9.11907 -3.06103 -0.00711884 0.023725 0.00481427 
286 2 31.8792 -9.37582 -3.94564 0.0406133 0.0709369 0.00141211 
257 1 33.7642 -7.11008 -2.85175 -0.0229708 0.00541307 0.00171939 
273 1 34.3387 -9.17618 -4.43145 -0.042077 -0.00585901 -0.000430333 
255 1 34.9157 -6.30244 -3.15404 -0.00512681 -0.00876472 -0.0165771 
261 1 35.6794 -7.01228 -4.07725 0.0099419 -0.00126108 0.00216957 
256 1 33.1324 -5.1075 -1.1211 0.000234234 0.0115013 0.0133006 
280 2 34.4906 -1.60267 0.0978032 0.0383259 0.0362091 -0.0496553 
268 1 34.1826 -2.55648 -0.13085 -0.0127699 -0.0124909 0.022911 
285 2 33.8787 -10.1244 -4.79611 -0.0985287 -0.0752685 -0.0215045 
260 1 34.6183 -3.15308 -1.33312 -0.00423792 0.0197331 -0.0234523 
254 1 33.9369 -4.39847 -1.89051 0.00800422 -0.00615046 -0.0347102 
267 1 35.3596 -2.20657 -2.27517 0.00628772 -0.0020209 0.0227007 
253 1 34.9591 -4.9083 -2.99777 -0.00832563 0.00339851 0.0225516 
560 1 13.4751 0.876868 8.25323 -0.0165485 -0.0105862 0.0205491 
509 1 25.7969 11.4199 0.771077 0.00458453 0.0209745 0.0139507 
516 1 27.1565 9.16112 0.447228 0.0168619 -0.00901272 0.000430107 
528 1 25.567 8.70866 0.211746 0.0126216 -0.00410892 0.0326432 
527 1 28.2208 8.82764 -0.598338 0.000886452 0.0267105 0.00672435 
510 1 27.1285 10.6388 0.645527 -0.00773689 -0.000492043 -0.0115758 
536 2 29.9919 9.77581 -1.42164 0.0129237 -0.0908018 -0.0294317 
524 1 29.0163 9.96295 -0.96786 0.0138355 -0.00124783 0.010494 
514 1 28.8744 11.2988 -0.815282 -0.000706059 0.00247777 0.03778 
546 1 12.2416 -0.220573 5.53722 0.00278531 0.00137436 -0.0152935 
216 2 26.8789 -9.20594 4.80605 -0.012206 -0.000724535 -0.0180525 
345 1 27.8676 -9.60207 4.39128 -0.0120969 0.00357381 0.00854852 
342 1 28.0155 -10.5274 3.31958 -0.0243416 0.00476226 0.00560006 
354 2 27.348 -11.0512 2.95483 0.063044 -0.0649363 0.00588094 
335 1 29.1648 -8.89145 4.7403 0.00483559 -0.0308748 0.019893 
341 1 29.6347 -11.6815 2.16456 -0.0203838 0.00270861 0.00243987 
333 1 29.5366 -10.5337 2.91464 0.0155003 -0.0180291 -0.00323718 
346 1 28.9228 -7.7906 5.74795 -0.0164281 0.00968379 0.00220129 
358 2 27.7304 -8.05025 5.84796 -0.035193 -0.0162242 -0.0844788 
275 1 31.6661 -6.68857 0.263524 0.00147752 -0.0146065 -0.0351112 
575 2 13.123 -0.445041 6.04059 -0.034501 0.0640928 -0.0266322 
349 2 33.6412 -11.3236 -0.0252075 -0.0186033 0.0267047 0.0226226 
331 1 32.052 -11.036 1.81954 0.00148696 -0.011054 0.0217373 
325 1 32.12 -10.105 3.0032 0.0143896 -0.0242904 0.00689818 
338 1 30.9672 -11.8223 1.6644 -0.00130157 -0.0128926 0.00712633 
327 1 30.8472 -9.81008 3.2153 -0.0110411 -0.00332559 -0.00663515 
329 1 30.563 -8.99905 4.27138 6.66724e-05 0.0101177 -0.00675959 
326 1 33.1657 -9.35124 3.61319 0.0108708 0.0107653 0.00429139 
332 1 34.0435 -8.91622 2.56309 -0.0182595 -0.00753366 0.0292399 
328 1 32.8334 -8.47612 4.79176 0.0158126 -0.00497663 -0.00309537 
330 1 31.4999 -8.36814 5.18218 -0.00015222 0.0223534 0.0059561 
337 1 33.1877 -10.8927 0.860081 0.00881078 0.00307501 0.00248693 
339 1 34.1148 -9.9252 1.28094 -0.0191764 0.00485229 -0.0105173 
343 1 34.9361 -7.04907 4.25072 0.0109622 0.0050801 -0.00247285 
340 1 35.0845 -8.09593 3.17883 -0.00334341 0.0243019 -0.00113326 
334 1 34.0339 -7.56759 5.39983 -0.00627119 -0.0129289 -0.0234158 
351 2 34.8444 -10.1268 0.488724 -0.0315114 -0.0129014 0.084833 
552 1 14.3528 0.0126141 9.16302 0.0482778 0.00383434 -0.0183173 
508 1 27.8285 11.7023 0.102516 0.00227205 -0.0024236 -0.00196422 
262 1 32.8716 -4.42276 0.0666667 0.0154099 0.0105828 -0.00861017 
271 1 33.0073 -3.03843 0.579195 0.00433471 0.00479154 0.000934073 
272 1 32.373 -5.66813 0.865796 -0.0240578 -0.00696134 0.00725855 
287 2 31.807 -5.31127 1.92435 0.0188798 0.067221 -0.0290252 
284 2 33.3039 -3.37167 1.59343 0.065823 -0.00906946 0.0448896 
550 1 12.042 0.920636 7.93958 -0.00981596 -0.00612463 0.00949492 
545 1 12.0472 -0.252074 4.09508 -0.00275713 0.00199896 0.00110551 
563 1 15.3934 -0.191265 9.89957 0.00358716 -0.0195031 0.0042563 
525 1 23.6358 11.2787 1.8174 0.00352814 0.0120222 -0.00844699 
534 2 22.8036 11.6592 2.44447 0.0557646 -0.124092 -0.00460152 
538 2 23.8858 8.20231 1.45257 -0.0236661 -0.00727921 -0.051551 
515 1 24.7189 10.6202 1.21399 -0.00174556 0.0178011 0.0284749 
526 1 24.6545 9.01647 1.12688 0.0186938 0.00145654 -0.00748059 
279 2 35.1635 -1.14176 -1.74772 -0.0205225 -0.0718694 -0.063848 
348 1 29.858 -6.97541 6.46497 0.00176863 -0.0171089 -0.00527848 
360 2 29.692 -6.51374 7.29857 0.0261304 0.119678 -0.0198716 
336 1 31.3152 -7.26389 6.22937 -0.000446454 -0.00288297 -0.00438158 
356 2 34.3084 -5.95024 6.65878 -0.00809865 0.0697471 -0.0489061 
344 1 33.6538 -6.78748 6.54748 0.00672427 0.00115858 0.00853562 
359 2 32.366 -5.80208 7.66331 0.0902693 0.0460578 0.00975623 
347 1 32.3343 -6.61716 6.98466 -0.0141655 0.0237171 -0.0272855 
259 1 35.7745 -4.01191 -3.59801 -0.00726946 -0.0153098 0.00778474 
421 2 12.9385 -3.98989 5.15688 0.00996619 0.0319623 -0.0997652 
554 1 12.0742 1.91029 1.10645 0.0160692 -0.0010025 0.0037118 
467 2 22.2861 1.41184 17.184 0.113117 -0.00911953 -0.013241 
455 1 22.4304 2.1857 17.9344 0.0356448 -0.0227246 0.0150574 
444 1 21.3785 3.04863 18.5409 0.0168153 0.0141722 0.00566986 
452 1 23.5691 1.67857 18.5532 -0.0167944 0.0227163 -0.00106994 
468 2 19.5774 2.93627 18.5888 0.0568117 0.0227156 0.00846094 
456 1 20.2148 3.53156 19.2186 0.00872786 0.00164207 -0.00201732 
436 1 23.7351 3.5332 19.7024 -0.0103996 0.00422183 -0.002559 
438 1 22.2789 3.86721 19.3207 0.00770395 -0.0067276 -0.0216378 
454 1 20.405 4.92283 19.4745 0.00262719 0.00277567 0.00559511 
437 1 21.8706 5.20262 19.6739 0.0133178 0.00819468 -0.0298597 
433 1 23.8195 5.70141 21.194 0.0147952 0.00635744 0.0193917 
443 1 19.4696 5.85082 20.3956 -0.003956 -0.0200471 -0.00279559 
442 1 24.2389 2.02501 19.7172 0.00174797 -0.000208356 0.0213498 
463 2 25.5877 0.611727 20.1816 -0.0633749 0.0293067 0.00625048 
451 1 25.3084 1.69707 20.6352 -0.00642155 -0.00752904 -0.00821098 
448 1 25.8852 2.60785 21.6052 -0.0105983 -0.026944 -0.00283874 
460 2 26.6008 2.38498 22.3442 0.104338 0.00146653 0.0384046 
434 1 24.2595 4.34315 20.7322 -0.0149411 -0.00893903 -0.0131168 
440 1 25.3973 3.86285 21.6239 -0.0115381 -0.0253433 0.0149215 
447 1 25.9384 4.70321 22.6439 -0.0212684 -0.00683418 -0.0245297 
459 2 26.6917 3.75013 23.2023 0.085712 -0.103632 0.0115435 
453 1 18.6255 5.97575 21.4552 -0.0122701 -0.00144688 0.0144636 
435 1 22.5565 6.08493 20.6179 -0.0149609 -0.000659701 -0.00867583 
441 1 22.1636 7.38078 20.9369 0.0016008 -0.0114411 0.0237835 
462 2 20.5766 7.25189 19.8225 -0.0669911 -0.0346183 0.0607723 
465 2 19.7351 8.49386 20.9506 -0.0746388 -0.0054242 0.00966436 
450 1 20.6938 7.90365 20.6502 -0.0146082 -0.000597726 -0.0283834 
446 1 24.3544 8.2011 22.1572 0.00375209 -0.00635697 -0.00693135 
449 1 23.2572 8.29638 21.2291 0.0348449 -0.0150495 -0.0302661 
461 2 23.0056 9.37592 21.1677 0.0260645 -0.0253625 0.039397 
439 1 24.5997 6.73161 22.0335 0.00578888 -0.0130476 -0.0226108 
445 1 25.3606 6.01517 22.9346 0.00558689 0.029653 0.00914234 
457 2 26.4597 6.11573 23.5721 0.00710105 -0.0201492 0.0638101 
210 2 27.732 9.16253 29.5862 -0.0171698 0.00373537 -0.0670588 
458 2 24.7989 8.82922 22.8778 0.0240746 -0.0024068 -0.03191 
150 1 28.6787 -11.3155 32.9765 0.00555897 -0.0313091 -0.000120067 
163 1 26.2164 -10.3425 35.5918 0.0169409 0.00743096 -0.00930209 
167 1 25.3316 -9.63379 32.461 0.0149645 -0.025499 0.00633894 
154 1 26.9399 -10.1528 34.244 0.00677277 -0.0108813 0.00312855 
146 1 28.6436 -11.3374 35.5234 0.00613257 0.00413497 -0.0144639 
164 1 26.116 -9.83172 33.321 -0.00463709 0.00643034 0.00354036 
148 1 28.1827 -10.8692 34.2189 -0.00681948 0.00100886 0.0287661 
180 2 28.7603 -11.2981 29.8427 -0.0407498 0.0714982 -0.0512719 
156 1 28.0388 -11.049 31.608 -0.00190496 0.019646 0.00633628 
175 2 25.4382 -10.9007 35.6623 0.0209456 0.0718069 -0.029644 
168 1 28.1238 -11.8253 30.3923 0.0190909 -0.00429731 -0.00882692 
151 1 29.4333 34.3645 -11.257 0.0219672 0.0295725 0.0260174 
171 2 29.0707 34.3195 -9.22662 0.0150346 -0.0184585 0.0232476 
157 1 28.9171 35.0315 -10.0364 -0.0352715 0.00305955 -0.00178946 
170 2 29.5655 32.089 -10.6837 0.0395423 -0.0184603 -0.0344106 
158 1 29.9917 32.9713 -11.2909 0.0124599 -0.00239899 -0.00211481 
520 1 29.5781 13.7037 -0.855689 0.00311456 -0.017675 -0.00518658 
506 1 27.6139 13.2303 0.331564 0.0128107 0.0144775 0.0199057 
512 1 28.7324 14.0579 0.405571 -0.0048772 -0.0294343 0.00457289 
532 2 30.3041 14.2524 -1.26327 -0.0391926 0.0131416 -0.0550657 
523 1 29.8783 12.3959 -1.43943 -0.0120377 -0.0259342 0.0120253 
350 2 30.9315 35.4908 0.879194 -0.00464939 0.0588008 0.0163558 
535 2 30.637 11.991 -1.9447 0.0837356 -0.0159081 0.0655882 
533 2 26.8318 13.3481 3.85194 -0.0410627 0.0509744 -0.00811242 
394 2 19.8232 18.6001 5.16743 0.0148179 0.112426 -0.0260556 
521 1 25.9472 13.978 3.93756 0.000753854 -0.0182832 0.0206494 
513 1 25.0676 12.732 3.55146 0.00609821 -0.00296688 0.00346003 
507 1 25.3516 12.7191 1.12385 0.00478125 -6.56901e-05 0.000794698 
519 1 28.8007 15.3826 1.02014 0.0173525 -0.0109376 -0.0222244 
530 2 25.2459 15.8944 3.4521 0.0249362 -0.0175151 0.0561884 
505 1 26.2172 13.909 0.905855 -0.0148527 -0.0104313 0.02805 
517 1 27.5309 15.9885 1.2556 0.0184161 0.000206186 -0.0109228 
518 1 25.6737 14.9807 2.96738 0.0093328 0.0211244 -0.00327716 
531 2 29.7781 15.9306 1.41714 0.01491 -0.0376383 -0.0636105 
529 2 27.2461 17.0707 1.52182 -0.0390647 0.0305876 -0.0770907 
511 1 26.2586 15.1748 1.46734 0.00657762 0.0151926 0.0149133 
250 2 20.8112 22.0639 2.09 -0.0414291 0.00362757 0.0134954 
144 2 20.0889 19.6513 5.33475 -0.0487824 -0.0714412 0.0182413 
522 1 24.5618 12.4499 2.17475 0.0145105 0.0065664 0.0162591 
353 2 28.8615 35.3297 1.84293 -0.0751008 -0.0648672 0.041991 
248 2 18.4785 13.592 13.2957 0.0361707 -0.0717008 0.0379178 
176 2 19.0344 13.2991 12.6391 -0.198083 -0.0979744 -0.0378874 
153 1 30.3038 33.2269 34.4401 -0.0190659 -0.0262938 -0.000566502 
161 1 30.5457 32.3093 35.512 -0.0103521 -0.0231771 -0.0134513 
178 2 28.8338 34.1924 30.2933 0.0428362 0.0132804 0.0410535 
539 2 22.9934 31.8711 34.4195 -0.0511882 -0.0313964 -0.0548649 
179 2 22.5866 32.1149 33.7785 0.066994 0.00662176 0.0366395 
166 1 28.6997 34.9674 31.0315 0.0110589 0.0113661 0.0108039 
149 1 29.4182 35.4906 33.1756 0.0183402 -0.013103 0.00171417 
174 2 30.4729 32.666 31.1503 0.0767901 -0.0611792 0.0239229 
165 1 30.279 33.5116 32.1064 0.00393393 0.0112498 0.000550329 
155 1 29.6066 34.6762 32.2041 0.0106859 -0.00176564 0.00399849 
147 1 29.6541 34.8852 34.3744 -0.00527804 -0.0162427 -0.00307358 
145 1 29.4001 35.4099 35.5616 0.0159736 0.0123024 0.0105099 
162 1 30.2088 33.0799 33.2658 0.0164593 0.00449293 -0.0256841 
173 2 30.6499 31.3148 35.64 -0.0352513 0.0241783 0.0220808 
225 1 49.9586 1.24124 9.97984 -0.0199646 0.0289906 0.0103568 
234 1 50.7246 0.340006 10.651 -0.0173066 0.000104211 -0.017303 
269 1 36.2825 -5.93597 -4.80486 -0.000313064 -0.0158911 -0.000937281 
265 1 36.0968 -2.64239 -3.36119 -0.0348215 0.027353 0.0427278 
266 1 36.2903 -4.63695 -4.91729 0.000395258 -0.00996068 -0.0152235 
281 2 36.637 -3.9931 -5.595 0.0456464 -0.0767744 0.0889632 
277 2 36.7947 -1.99172 -3.98855 -0.00611191 0.0486505 -0.0282299 
236 1 45.3629 -2.52059 9.12595 0.00527484 0.0155452 0.00743475 
251 2 43.6909 -2.07776 7.32249 -0.072299 0.0853153 -0.0360122 
239 1 44.6248 -1.75237 8.07839 -0.0302088 0.0146815 0.0077309 
220 1 46.0741 0.190125 8.77153 -0.0128282 0.0168998 0.0123319 
222 1 46.9674 -0.682392 9.51655 -0.0158312 0.0115087 -0.0272742 
228 1 46.8147 -2.11276 9.01761 -0.0306516 -0.0047795 -0.0295605 
235 1 44.2997 0.633321 7.13711 -0.00789554 -0.00132437 0.0020111 
247 2 43.8802 0.241025 6.39101 0.116621 -0.0796635 -0.0116511 
226 1 45.0539 -0.284985 7.90884 0.0106316 0.0229431 -0.0257293 
221 1 48.0142 -0.0545154 10.4523 0.0118886 -0.0012098 -0.0271 
245 2 51.5073 2.94602 9.01963 -0.0271397 -0.0317923 -0.0337242 
244 2 43.9134 2.97641 6.55097 0.0568113 -0.0398899 -0.0515913 
218 1 46.3568 1.58944 8.65584 -0.00270752 0.022912 0.00118366 
232 1 44.3885 2.10381 7.12641 -0.0111195 0.00312095 0.00904959 
229 1 47.6824 4.0274 7.60232 0.00946546 -0.00791679 -0.0074884 
224 1 45.6515 2.3758 7.60491 -0.00321999 -0.0138031 0.0128482 
241 2 48.4858 4.72999 7.36803 -0.0785513 0.0404539 0.0267518 
231 1 46.5412 3.63281 7.15939 0.000497924 0.0186636 0.0115443 
243 2 46.0443 4.27405 6.24473 0.0341475 -0.0379788 -0.00775398 
217 1 47.5096 1.9859 9.20362 -0.0146709 0.0037225 0.007762 
233 1 50.5169 2.52266 9.18859 0.00696691 -0.00570985 -0.0152504 
219 1 48.5387 1.06748 9.75838 0.0162609 0.00703814 -0.0138266 
223 1 48.1439 3.30903 8.91779 0.00576483 -0.00671126 -0.0113553 
230 1 49.4212 3.4709 9.48174 0.00709125 -0.00347919 -0.0274223 
242 2 50.0826 4.454 9.59064 -0.0304914 0.0672904 -0.0486122 
246 2 51.8175 0.195438 10.2148 0.0324719 0.113178 -0.0377451 
237 1 49.9867 0.0728644 11.8595 0.0279883 0.0327584 -0.0086373 
227 1 48.5892 -0.141603 11.8432 0.00123262 0.0108812 0.0213494 
238 1 47.7236 0.31123 12.7872 -0.0155267 0.00944098 -0.00424745 
240 1 47.0375 0.852733 13.6931 0.0202997 0.0137498 -0.00919941 
357 2 46.7319 1.7853 13.4711 -0.0329999 -0.0330751 -0.0268158 
252 2 46.0847 0.517319 14.3551 0.0108048 0.00679796 -0.00567079 
249 2 50.4729 0.0178077 12.8579 0.0249245 0.0480744 -0.0585069 
499 2 52.8559 27.7274 23.7863 0.00236289 -0.0215615 0.0772725 
484 1 53.4994 27.082 24.3708 -0.0260408 0.00450054 0.00252681 
487 1 54.8557 26.3597 23.8203 -0.00622331 0.000760994 0.00881024 
503 2 54.9249 25.8112 22.9198 -0.091231 0.0669688 -0.0701532 
108 2 49.4987 24.5629 25.4527 0.067384 0.0265861 0.0297591 
482 1 50.2407 22.989 26.7979 0.00610444 -0.00286438 -0.0271602 
477 1 52.2256 23.3113 28.1144 -0.0169094 -0.0231995 0.00258908 
494 2 49.9375 21.9249 26.6436 0.0334658 -0.0103407 -0.0487197 
485 1 51.3741 22.3493 27.58 0.0040356 -0.0229932 0.0164351 
502 2 59.4709 20.4681 27.6052 -0.0222757 -0.0192281 0.013347 
486 1 59.4074 21.4867 27.4148 0.0150638 -0.0091854 -0.0162355 
493 2 50.3903 28.1969 26.093 -0.0853468 0.0120078 -0.00169036 
483 1 50.9787 27.2657 26.1656 -0.0179504 0.032399 -0.00137803 
481 1 51.7103 26.316 25.9652 0.0182246 0.0113029 0.01744 
476 1 53.0683 26.4667 25.3387 0.0186204 -0.0080114 0.00739044 
469 1 51.2768 25.1357 26.7279 -0.000598526 0.00760763 -0.0138891 
470 1 54.1139 25.8309 26.1707 0.000249583 0.00113891 -0.00258454 
475 1 50.089 24.3183 26.3421 0.0130141 0.0170543 -0.0241861 
471 1 52.3809 24.5605 27.4198 -0.00298597 0.0195107 0.000437237 
479 1 53.7854 25.1065 27.4072 -0.0104345 0.0105253 0.00634935 
478 1 55.9245 25.9853 24.7567 0.0310258 0.0163715 -0.00531527 
472 1 55.3566 25.2713 25.8989 0.0347916 0.0367723 -0.0207415 
489 1 59.5577 22.7555 27.1254 0.00447667 -0.0204895 -0.00234959 
473 1 55.9075 24.6196 27.0764 -0.0148946 -0.012096 0.0126888 
490 1 58.382 25.0399 27.4975 -0.0126683 -0.0166568 -0.000429309 
480 1 57.3123 25.2263 27.4528 -0.0104438 -0.00514254 0.00280277 
474 1 54.9488 24.6729 28.1891 0.0312394 -0.00981691 0.00850974 
497 2 54.9677 24.2192 29.0714 -0.00774991 -0.114904 -0.0585878 
498 2 50.9557 21.5779 28.2169 -0.0297166 -0.122518 -0.0128297 
500 2 53.7695 24.3913 31.3595 -0.0780018 0.0809229 -0.00942504 
501 2 52.078 24.0993 31.6174 -0.0181978 0.0132497 -0.0196034 
488 1 52.4879 23.5405 29.6086 0.00816274 -0.0108223 -0.0143053 
491 1 52.785 24.1497 30.8155 -0.00244687 -0.0245067 -0.00454612 
282 2 36.4511 24.7381 22.3301 -0.0338151 -0.019627 0.0286093 
492 1 59.6148 24.098 27.014 -0.0319388 0.0020017 -0.0458156 
135 2 36.8987 25.0577 23.1498 0.0763786 -0.0820742 -0.00101039 
60 1 66.4272 9.15142 11.6477 -0.0279775 0.00949493 0.0101721 
191 1 71.8983 8.93166 -11.6035 -0.0257192 -0.00879315 0.0255276 
66 2 63.6337 7.65204 11.9291 0.0154023 -0.0372318 -0.00763971 
213 2 72.2569 8.36075 -9.64738 0.00154253 0.0736551 -0.00946847 
133 2 74.0707 9.83734 -9.06139 -0.0519325 -0.151329 0.0296075 
201 1 72.4351 9.10962 -10.2925 0.00296962 0.0261824 0.0108172 
198 1 73.6518 9.90098 -10.1543 0.0231195 0.0108132 0.00967855 
189 1 73.7192 10.9504 -11.2717 -0.032964 -0.0181236 -0.0156368 
466 2 73.4591 -8.38058 -10.1969 0.101183 0.0652882 -0.10697 
70 2 67.2943 8.88318 10.9303 -0.0827172 -0.0203701 -0.00568307 
69 2 66.2615 4.71984 9.83805 -0.0205346 -0.0240147 -0.11474 
54 1 65.1288 5.20984 10.0863 0.0162521 0.0105739 -0.00796149 
105 2 72.5534 -8.17761 -10.8125 -0.0606219 0.035283 0.0931097 
47 1 64.619 7.16799 11.9556 0.00349145 -0.00376183 0.0214751 
57 1 65.0884 6.14971 11.1863 0.0136638 -0.0103093 0.0316582 
396 2 77.382 -10.1599 -11.8997 -0.0718329 0.104116 0.00113177 
395 2 75.7886 -11.5471 -11.7923 0.0577528 -0.0346702 -0.0216144 
100 2 75.1484 5.36187 32.5368 0.126162 -0.0663681 0.0215112 
92 1 66.5441 -11.5341 16.0407 -0.0140986 -0.0220412 0.037119 
88 1 62.8191 -11.8168 16.1051 0.00802722 -0.0169747 -0.0227218 
104 2 66.2658 -10.6944 15.6076 -0.0391092 0.0386233 -0.0652989 
85 1 78.1434 6.54635 32.8238 -0.0063383 -0.00380749 0.00756519 
107 2 68.1869 -10.3207 16.7829 -0.00390039 0.0431749 -0.0556408 
95 1 67.4482 -10.9156 17.0256 0.00311465 0.0183436 0.0261574 
106 2 69.7891 -11.161 17.9882 0.0863773 0.01981 0.0559206 
103 2 62.3482 -11.193 15.41 0.0872214 0.0024005 -0.04779 
39 1 64.7605 8.07969 14.8452 0.0225744 -0.016325 -0.0221516 
50 1 63.1745 7.29391 17.2628 0.00592964 0.0228851 0.0220206 
45 1 63.3381 7.65368 14.6834 -0.0163851 -0.00693721 -0.0250909 
62 2 62.8217 7.42574 13.6312 -0.0261819 0.0230879 0.0469594 
53 1 62.8268 7.37459 16.0247 -0.00593006 0.00827562 0.00091157 
37 1 65.2869 8.15233 16.1426 0.00713655 -0.00428782 0.0182049 
65 2 62.4554 6.79635 18.0418 -0.0935058 0.0452641 -0.101402 
43 1 64.6947 7.61095 17.4519 -0.00552588 -0.0202927 -0.019919 
49 1 65.6768 7.18408 18.3301 0.0374117 0.00941473 0.0132401 
41 1 65.2037 8.74222 13.6826 -0.0162057 -0.00656886 -0.00763625 
58 1 65.611 8.15446 12.3541 -0.0214061 -0.00388146 -0.0085699 
44 1 67.3272 9.04776 17.0522 -0.00202139 -0.0246634 -0.0088723 
38 1 66.1574 9.17798 16.2219 0.0192048 -0.0194704 -0.0107729 
42 1 66.2497 9.4854 14.1428 -0.000864982 -0.00203399 0.00509769 
48 1 66.6862 10.0723 12.8516 -0.00152899 -0.0130151 -0.00938503 
56 1 67.3142 11.2816 12.9837 -0.00675082 0.0293255 0.0104819 
40 1 66.4137 10.2004 15.3761 0.00825872 -0.0205163 0.0190016 
46 1 67.4437 11.383 15.597 -0.0223925 -0.0209931 0.0113814 
59 1 67.5431 11.9336 14.2936 -0.0139746 0.0322868 0.0163929 
372 1 77.1529 -11.6043 34.5049 -0.0138862 -0.0100098 -0.00337401 
199 1 72.4543 11.0798 30.8937 0.0112886 -0.0224538 0.00835233 
52 1 68.4528 10.0148 17.227 0.0151501 0.00556852 -0.00204494 
55 1 68.5985 10.7514 16.2447 0.0156221 -0.0387935 0.00221025 
96 1 69.0617 -11.4199 18.5391 -0.00512291 -0.000509801 0.00322035 
309 1 75.5463 -2.85911 24.2141 0.0296676 0.0085011 0.0248174 
306 1 75.611 -2.52062 23.0036 -0.0165792 0.00939569 0.00677707 
291 1 77.699 -1.3385 23.021 -0.0162393 -0.00657471 -0.00331513 
297 1 76.6484 -1.95176 22.2606 -0.0246146 0.0217874 0.0160883 
317 2 75.9122 -1.7538 20.1934 0.0507151 -0.000416254 -0.0699253 
305 1 76.6177 -1.66012 20.9233 0.00227278 -0.00298251 -0.00762469 
302 1 77.8505 -0.952909 20.4277 0.0216866 -0.0175993 -0.00933931 
289 1 78.8053 -0.811693 22.6405 -0.0010686 0.0103284 -0.027264 
295 1 78.6358 -0.296236 21.4008 -7.4551e-05 0.0131706 -0.00298291 
352 2 70.8104 9.3887 27.2069 0.032245 0.00307303 0.0817619 
314 2 77.8356 -0.587408 19.3065 0.0175265 -0.0204711 0.0194616 
313 2 79.7151 0.89274 19.4583 -0.022968 -0.057902 0.0692522 
301 1 79.533 0.693392 20.7577 -0.00660458 -0.0082911 0.00288793 
315 2 81.2296 1.39627 21.3336 0.0199055 0.0628289 -0.00783445 
303 1 80.5405 0.816147 21.7193 -0.0145865 0.0136353 -0.00145466 
296 1 80.2912 0.510902 23.1105 0.0104083 -0.00999492 -0.00497828 
61 2 65.6722 7.01938 19.4253 -0.121903 0.0116764 0.0567803 
51 1 66.9087 7.62738 17.4876 0.0126837 0.00558978 0.000644508 
63 2 67.9406 6.96952 17.658 -0.0661316 -0.00378497 0.0421046 
318 2 75.6808 -3.97772 26.1496 0.0192284 -0.0272248 -0.0235627 
299 1 76.1005 -3.27542 25.2612 0.00787022 -0.0339914 0.0160477 
293 1 77.6072 -1.46736 24.5168 -0.00279976 0.0107491 0.022307 
310 1 77.3109 -2.57036 25.449 -0.0198084 -0.00694404 0.0302401 
322 2 78.0114 -3.06842 26.0694 0.0253819 0.0261892 0.0459073 
300 1 76.8446 0.337013 26.5143 -0.00651345 0.0220216 0.00264217 
294 1 77.9047 -0.304269 25.4483 -0.00345259 0.00684363 -0.00721433 
324 2 75.6555 -1.19652 26.7947 0.0128534 -0.0215865 0.0581044 
312 1 75.5197 -0.0902868 27.0288 -0.00335832 -0.0216415 0.0135159 
321 2 74.8411 0.101502 27.7929 0.0273142 0.10508 -0.0452917 
574 2 71.4019 8.64332 27.1706 0.0549981 0.0941561 -0.0169592 
311 1 77.3776 1.63723 26.8332 -0.0121612 0.0257211 0.00124795 
323 2 76.6512 2.5189 27.3028 0.108184 -0.0238329 0.0372974 
292 1 79.2409 0.450192 25.0849 0.0175033 -0.0137354 -0.0181314 
308 1 78.785 1.63363 27.2672 0.0132503 -0.015396 -0.0103873 
320 2 78.9204 1.05296 28.3243 -0.0556123 0.0365872 0.0110663 
298 1 79.7249 1.24072 26.0163 0.00734735 0.00191174 -0.0093965 
319 2 81.5701 1.95166 26.3289 -0.053106 0.0966566 0.0310747 
307 1 81.072 1.573 25.4217 0.027767 -0.0150507 -0.013805 
304 1 81.3286 0.99318 24.0822 0.000424752 -0.00787581 -0.00343793 
290 1 79.2757 -0.177513 23.8431 0.00591096 -0.0127061 -0.0472627 
316 2 82.336 1.20606 23.7537 -0.0179859 0.0381795 -0.0579317 
211 2 72.5122 10.6492 29.8692 -0.111857 0.0454858 0.0554647 
384 1 77.9307 -10.5666 35.1301 0.0129748 0.00755347 -0.00726034 
390 2 79.3054 -8.94629 34.2142 -0.053618 0.0399446 -0.0280038 
382 1 78.7484 -9.97006 34.1551 -0.00426387 0.0200446 -0.0127921 
371 1 79.3203 -10.6129 33.0145 0.00367511 0.00239122 -0.00589471 
381 1 80.1069 -10.0053 31.934 0.0193717 -0.00518238 0.00919903 
495 2 80.8596 -9.96605 30.0333 -0.0386591 0.0345544 -0.00474939 
393 2 79.8071 -8.99154 32.2781 0.102495 -0.0163492 0.093589 
378 1 80.6402 -10.7138 30.7574 0.0100687 -0.0124705 0.00548303 
84 1 67.6178 -11.6615 18.2529 0.00332644 -0.0192282 -0.0131019 
72 2 67.2274 11.7109 11.9149 -0.0227019 0.0143771 -0.147336 
182 1 72.2951 11.8417 33.6317 0.00739298 0.00115216 0.0216304 
215 2 69.1824 8.014 32.1595 -0.0547277 0.132888 -0.0716402 
200 1 71.0951 8.90576 31.4998 -0.00913587 0.00913204 0.0147058 
192 1 70.7241 8.45631 33.7499 -0.00176916 -0.02938 -0.0127342 
204 1 70.0315 7.67163 34.7746 -0.00562116 0.0102823 -0.0296033 
203 1 69.9146 8.45243 32.5549 -0.00244692 -0.00596274 -0.000349368 
190 1 71.4644 10.2333 31.7133 0.010305 0.0208088 0.0151453 
212 2 71.5747 8.62044 30.6127 0.0730832 -0.0878809 -0.0604379 
214 2 69.8465 6.55509 34.5626 -0.0237429 -0.0134597 0.00571418 
185 1 71.7988 10.014 35.3301 -0.00174633 -0.0032112 -0.00632466 
186 1 71.1665 9.92982 34.2371 -0.00883583 0.0141698 -0.00939775 
183 1 72.9645 10.852 35.5673 -0.00633863 -0.00252914 0.0123781 
99 2 78.8786 7.3215 33.3915 -0.00509098 0.0309007 -0.0540774 
87 1 77.5159 5.52898 32.2639 -0.0182656 -0.00442067 -0.0107803 
67 2 68.9306 9.41958 18.2614 0.0279805 0.0224741 0.0450531 
184 1 71.5238 10.7126 33.116 0.0108368 0.00907001 -0.0060751 
80 1 76.2363 5.49952 32.6471 -0.00131603 -0.000320543 -0.0624756 
383 1 75.7814 -11.8459 35.0981 -0.0206326 -0.0109073 -0.00219671 
202 1 70.8812 8.16923 35.7646 0.0219631 -0.0279353 0.00738914 
181 1 73.2275 11.8082 34.709 0.00647636 -0.000332449 -0.018664 
209 2 73.3899 12.2938 -9.1938 -0.0725089 0.0247719 0.00452233 
197 1 73.3834 12.2677 -10.4298 0.0275682 0.000786961 0.00232875 
194 1 73.2565 13.4212 -11.2455 -0.0125875 0.00750722 -0.00882475 
206 2 72.54 14.0391 -11.1816 0.0417382 -0.032541 -0.0288577 
415 1 74.4057 25.0537 10.1236 -0.00561562 0.000640948 -0.0137921 
404 1 72.2565 25.6666 10.8216 -0.0284774 0.0149307 0.00413331 
504 2 83.1338 26.9221 8.60873 0.0548788 -0.0135114 -0.0903477 
423 2 69.4308 27.7928 11.044 0.0417913 0.0854219 0.0788999 
431 2 77.9437 23.1052 10.5853 -0.0574511 -0.0999903 -0.0366811 
419 1 77.2914 22.6289 9.80141 0.00327084 0.000982801 -0.0100581 
427 2 70.1482 26.2142 9.95635 -0.0314645 -0.0275576 0.00921885 
411 1 70.9225 26.1802 10.6636 -0.0179905 0.0134321 0.0226922 
428 2 77.325 21.6761 9.1345 0.0401245 -0.0390215 0.110638 
406 1 75.3949 24.2738 9.71225 -0.000322154 -0.0236934 0.0166295 
424 2 72.5421 24.7135 8.613 -0.00096962 -0.0734403 -0.0653739 
412 1 72.9625 25.145 9.81759 -0.00540359 -0.0173404 0.00747511 
416 1 76.3735 23.4429 9.80026 0.00276168 -0.0152001 -0.0268826 
409 1 70.2804 27.2322 11.3611 -0.0099794 0.0181956 -0.00251157 
71 2 83.7732 27.0696 8.9497 0.0902885 -0.0136757 -0.0127586 
432 2 76.6846 21.3258 11.1644 0.0111274 0.0523649 -0.00392261 
400 1 74.5036 25.3652 11.6925 0.00434992 0.00247267 -0.0246586 
398 1 73.3408 26.1052 11.9089 0.0041849 0.00673859 -0.0115918 
429 2 73.7412 22.1597 14.901 0.0188247 -0.0897953 0.0731471 
417 1 73.9705 23.0529 15.0715 0.00528519 -0.00173598 -0.00679286 