ITEM: TIMESTEP
220000
ITEM: NUMBER OF ATOMS
576
ITEM: BOX BOUNDS pp pp pp
-1.2000000000000000e+01 8.4000000000000000e+01
-1.2000000000000000e+01 3.6000000000000000e+01
-1.2000000000000000e+01 3.6000000000000000e+01
ITEM: ATOMS id type x y z vx vy vz 
277 2 1.74589 -1.12608 -10.164 0.0151228 0.0977082 0.0641344 
265 1 1.29622 -0.261315 -10.6563 -0.00488079 -0.0113252 0.000415506 
263 1 0.0361097 5.48511 -11.3505 -0.00521055 0.0128518 0.00343862 
282 2 2.20852 5.87442 -8.70689 0.0389673 -0.0790676 0.138769 
281 2 3.16365 3.25342 -8.35364 0.0321059 0.0777781 -0.0200956 
270 1 1.41373 5.21568 -8.99434 0.013755 -0.00195577 0.00979823 
269 1 2.74415 2.87667 -9.31707 -0.00453806 0.0259858 -0.00452611 
266 1 3.04811 1.57609 -9.91995 -0.0233098 -0.0204418 -0.00990445 
278 2 3.67928 0.819613 -9.57913 -0.0394008 -0.0616946 0.0325746 
261 1 1.85992 3.82582 -9.60345 -0.0379388 -0.0173282 -0.00434972 
259 1 1.90204 1.01625 -10.5926 0.0212744 -0.024477 0.0338345 
255 1 1.14479 3.29591 -10.7945 0.02441 -0.0264824 -0.0233011 
253 1 0.750263 1.97824 -11.081 -0.0172962 0.0209928 0.0233872 
285 2 -0.469951 6.58337 -9.51743 -0.0186945 -0.00206685 -0.010673 
273 1 0.476502 5.97789 -9.87363 0.0173454 -0.00492897 0.0151521 
465 2 11.2214 5.597 11.0069 0.0412902 -0.100388 -0.0384179 
462 2 9.91598 3.2563 10.8662 0.0338162 -0.0179883 0.034981 
441 1 11.889 2.11095 11.9388 -0.0120444 9.34479e-05 0.0346078 
450 1 11.0037 3.14614 11.3107 0.0184376 -0.0295179 -0.00112287 
453 1 11.5873 4.45036 11.233 -0.00438384 -0.00354237 0.00290179 
286 2 -0.561727 7.27129 -11.99 -0.00508035 0.0697602 -0.0712191 
257 1 0.342988 4.23956 -11.638 0.00781471 0.00236501 0.00495158 
267 1 0.222054 -0.619459 -11.7246 -0.00771837 0.0153594 -0.00132393 
279 2 -0.399513 -1.49908 -11.6323 0.0756607 -0.0343056 0.0106777 
274 1 -0.660597 6.23988 35.9523 -0.00405571 0.0252111 -0.00727987 
268 1 0.320238 0.115764 33.9206 0.0209897 -0.00213707 0.00548604 
132 1 -11.8113 -4.73916 17.1189 0.000785671 0.01354 0.0298695 
288 2 -1.80988 6.7656 34.7831 -0.00586664 -0.0953534 0.0280528 
143 2 -11.0727 -4.47032 14.6302 0.0227248 0.0470635 -0.0393886 
140 2 -11.6284 -1.93829 13.1004 0.020392 -0.0601586 0.0479619 
449 1 11.5612 0.82633 12.5748 0.014591 0.0182983 -4.22339e-05 
262 1 0.10578 2.27073 33.1704 -0.0116936 0.0158883 -0.00194798 
71 2 1.26411 -0.921453 28.159 0.0592022 0.0417382 -0.00436784 
256 1 0.232067 2.58502 34.7875 -0.00443827 0.00637367 -0.0125353 
276 1 -1.26375 5.81675 34.8685 -0.00415539 -0.00540786 0.0322885 
280 2 0.744444 -1.03475 33.9614 -0.0451049 -0.0203305 -0.0155559 
283 2 0.961573 0.79048 31.6174 -0.0579924 -0.0294539 0.0611417 
284 2 -0.507342 3.11054 31.2336 0.0443405 -0.0234744 -0.00316797 
264 1 -0.933914 4.62598 34.2169 -0.0211066 0.000804141 0.0260103 
258 1 0.171413 3.97855 34.9462 0.0340094 -0.0221975 -0.0197566 
271 1 0.544665 0.958161 32.7488 0.00147163 -0.0353249 -0.00184107 
128 1 -11.8759 -2.44035 14.2031 -0.0255556 0.00477624 0.00862037 
275 1 -1.24476 4.31978 32.9259 0.000566801 0.0115605 0.00337795 
272 1 -0.664453 3.13412 32.3416 -0.0140109 -0.00383836 0.0159659 
260 1 -0.113188 0.465412 35.2485 0.000609512 0.0212741 0.00644239 
254 1 -0.373265 1.80283 35.8902 -0.00633667 -0.0117142 0.0348142 
287 2 -1.95058 5.13467 32.5021 -0.124152 -0.0288824 0.0713935 
461 2 10.6474 0.225558 12.1671 -0.0349372 -0.088429 -0.0736702 
144 2 -10.7485 -4.3201 17.1365 0.0328444 -0.0860278 -0.0296374 
131 1 -11.8372 -3.60819 14.8513 0.0265209 -0.00704326 0.00543392 
215 2 11.434 26.1787 27.7627 -0.0133584 0.0986845 -0.0209444 
350 2 -11.0401 23.6021 23.1922 0.0346399 0.0282691 0.0260841 
331 1 -11.4321 24.8898 24.4415 -0.00445348 -0.010575 0.0155671 
349 2 -9.40539 24.5928 23.9915 0.117126 -0.0758468 0.120747 
337 1 -9.89451 25.0861 24.7626 -0.00465159 -0.00327801 0.00574142 
339 1 -9.28511 25.2425 26.1186 0.00538173 0.0011915 0.00177021 
351 2 -8.60892 24.8278 26.8421 0.00552276 0.01925 0.0441952 
332 1 -10.3517 25.7401 27.0018 0.00628361 0.00451304 0.0287778 
67 2 7.68407 30.6556 33.5303 -0.00292029 -0.0115974 0.0168395 
326 1 -11.5687 26.0848 26.7271 -0.0120712 -0.0581287 -0.00197392 
334 1 -11.8915 26.8991 29.117 0.010893 0.022416 -0.00105897 
44 1 7.28973 31.0476 29.8567 -0.021254 -0.0304243 -0.0117591 
340 1 -10.3381 25.1782 28.4215 -0.0109274 0.00681995 -0.020643 
355 2 -10.629 25.6144 30.6771 -0.0529698 -0.0259418 -0.0175885 
343 1 -10.9251 25.9325 29.5557 0.00508317 0.00239179 0.00673247 
352 2 -9.45706 24.5946 28.6681 -0.0437205 -0.01938 0.0427344 
47 1 4.18493 26.5325 30.153 -0.010282 0.00617068 0.00966354 
69 2 3.46866 24.7052 28.8415 -0.0207044 -0.0746758 -0.0119986 
57 1 4.01066 25.6598 28.876 0.0307167 -0.0211099 -0.00302152 
54 1 4.70795 26.2672 27.886 -0.0103465 -0.0172862 0.0123976 
45 1 4.98615 27.6329 27.6101 -0.00599023 -0.0267548 -0.0111799 
39 1 5.62621 28.1866 28.9089 0.000280603 -0.0331878 -0.00662531 
66 2 4.8751 25.2982 27.2889 0.0214363 0.0758577 -0.0124327 
65 2 4.93351 28.6786 25.577 0.0448829 0.0185727 0.0436614 
53 1 5.5775 28.4383 26.4769 -0.0108389 0.00723252 -0.0097828 
50 1 6.50395 29.5028 26.2988 0.00867681 -0.00680404 -0.00219901 
62 2 7.16689 29.7063 25.4684 -0.0663453 0.0754358 -0.104872 
37 1 6.37451 29.4412 28.7892 0.00602968 0.0028083 -0.00690906 
61 2 7.96144 31.421 26.5252 0.0217573 -0.00161291 -0.079287 
49 1 7.80221 31.1779 27.5567 -0.0176272 0.0135732 0.00585296 
43 1 6.8892 30.1665 27.6088 0.00662752 -0.0151724 0.0133019 
51 1 8.27257 31.5252 28.8422 -0.0178749 -0.00202253 -0.00235018 
63 2 8.89341 32.3098 29.2695 0.103155 -0.0295639 0.0117257 
55 1 7.35277 30.6316 32.4702 -0.0105359 -0.0176935 -0.00267344 
70 2 4.10195 24.8283 31.5501 -0.0419666 0.00647218 -0.061695 
48 1 4.03873 28.1779 32.5206 0.00337067 -0.000556187 -0.0123212 
72 2 5.88211 26.8645 32.4295 -0.0216002 -0.0646872 -0.0941349 
60 1 4.79108 26.9787 32.4852 0.0162843 -0.00865932 0.0115085 
42 1 4.40329 28.8734 31.0753 0.0179494 0.00156921 0.0064027 
58 1 4.12289 25.9967 31.4747 -0.0129857 0.00335679 -0.0147857 
41 1 4.6387 27.9022 29.8412 -0.0125287 -0.000583439 -0.00275823 
68 2 8.88373 26.3745 32.7441 -0.0765874 -0.00664582 -0.00586941 
59 1 7.97243 27.1913 32.7101 0.0182845 0.0111078 0.0100108 
40 1 5.71549 29.3392 31.3825 0.00448784 -0.02 0.0103622 
56 1 7.19205 28.1031 32.8426 0.00295766 0.00719601 -0.00521977 
46 1 6.57027 29.3747 32.5927 0.00473315 0.0538501 -0.000632523 
64 2 8.8798 31.6877 31.0947 -0.00433401 -0.113305 0.00371907 
38 1 6.70448 29.6165 30.1917 -0.0193734 0.00506131 -0.0174967 
52 1 7.86202 31.1869 31.2139 0.0119962 0.0149672 -0.0102993 
177 2 17.0342 -5.59118 -3.34575 0.0497132 0.0421675 -0.00891084 
565 2 17.5615 2.93039 -0.612389 0.0928186 0.000742002 0.00986033 
557 1 21.342 2.09342 -0.730746 0.00756816 0.0202856 -0.0220993 
554 1 19.9755 2.44477 -0.677379 -0.0105972 -0.00306171 0.00874068 
569 2 21.732 2.28375 -1.65907 -0.0944671 0.0340083 -0.0103215 
566 2 19.5553 2.70468 -1.59972 0.00629247 -0.0491422 0.0437524 
570 2 23.0313 0.259257 -1.20637 -0.0552591 0.0679661 0.0603605 
543 1 21.2827 1.2706 1.71628 0.015545 0.0332638 -0.0155487 
567 2 15.9262 3.09746 1.95745 0.11546 -0.0190729 0.0225359 
568 2 16.5346 2.37204 4.51574 -0.00677612 -0.00598102 -0.0460407 
556 1 17.5835 2.12141 4.33097 -0.00114432 0.0147656 0.0335761 
555 1 16.9798 2.79102 1.62473 -0.010026 0.0301673 0.020593 
548 1 17.9377 2.45171 2.99513 -0.00419318 0.0311041 0.00391129 
559 1 18.1424 1.16718 5.23083 0.00180286 -0.00423782 -0.0107183 
571 2 17.4806 0.636048 5.9285 0.0789276 -0.168232 -0.0690506 
553 1 17.8057 2.80748 0.437811 -0.00185202 -0.00568669 -0.00989336 
549 1 21.8019 0.960466 0.362608 0.00997088 0.0191832 -0.00777468 
547 1 19.3349 2.67651 0.630019 -0.0179453 -0.0102172 0.020606 
558 1 22.9913 0.317714 -0.0425278 -0.0277627 -0.0012299 -0.0140594 
541 1 20.072 2.12283 1.71835 0.0256574 0.00993819 -0.0017176 
542 1 19.3359 1.97411 2.96201 -0.00610763 0.0253866 0.0223043 
544 1 20.1844 1.68903 4.12063 0.00802527 0.0203204 -0.00147591 
550 1 19.651 1.13241 5.2108 0.0124449 0.0122265 -0.00765238 
545 1 22.1377 1.03247 2.74459 0.016585 -0.0163701 -0.0178064 
546 1 21.5909 1.1174 4.14358 0.0137855 0.000916143 0.023362 
552 1 22.5288 0.86569 5.18723 -0.00154835 -0.00294019 -0.0217992 
551 1 23.5855 0.383348 2.49883 -0.00518254 0.0301095 0.002531 
564 1 23.9579 0.455093 4.8748 -0.00937548 -0.00161429 0.00582999 
562 1 24.4283 0.140365 3.62298 0.00167376 -0.0124928 0.00196967 
576 2 24.9026 0.185778 5.50823 0.00403991 -0.0508929 -0.00180542 
574 2 25.4372 -0.215409 3.19756 -0.111723 -0.0374099 -0.0354895 
561 1 23.9353 0.437819 1.13046 0.0188013 -0.00420208 0.00224542 
573 2 24.825 -0.0233244 0.768675 -0.135099 -0.0460306 -0.0618982 
467 2 17.5174 6.23409 10.4001 0.0211961 0.0805748 -0.0447612 
468 2 15.3988 6.97394 9.79906 0.00583928 -0.056885 -0.0730654 
456 1 14.9457 6.52122 10.6663 0.00952545 -0.00341734 0.0107621 
454 1 13.5489 6.29377 11.0167 0.0184942 0.0253689 -0.00628036 
575 2 22.4406 -0.423269 7.21064 -0.0924017 -0.0568918 0.015705 
442 1 17.4393 3.036 11.623 0.00828977 0.00641961 0.00646085 
563 1 21.8364 0.136277 6.26093 0.0175463 -0.0316684 0.00326337 
436 1 16.2839 2.78016 11.9327 -0.0510324 0.0119131 0.00270609 
438 1 15.1478 3.99454 11.7089 0.00887629 0.0158566 0.010826 
464 2 18.8646 4.97061 11.2884 0.0726957 0.00801473 0.00762417 
466 2 12.8584 6.71149 11.8617 -0.0526748 0.0293895 -0.0323674 
560 1 20.418 0.0308843 5.97925 -0.0134015 0.00944783 0.0111303 
452 1 17.928 4.38084 11.5445 0.0135208 -0.0072359 -0.0273027 
435 1 13.3516 2.42818 11.9154 0.0207116 -0.00849513 0.00431917 
572 2 19.4985 -0.929098 6.60309 0.0506837 -0.0944558 -0.104342 
455 1 17.1626 5.37638 11.0215 -0.00653189 0.0176895 -0.00385669 
443 1 12.9312 4.96034 11.4256 0.0221234 -0.0204457 -0.0214163 
437 1 13.8803 3.75666 11.7594 0.0142015 0.0127934 0.0184487 
444 1 15.6866 5.3587 11.1795 0.00142664 -0.0029843 -0.00829394 
457 2 14.2457 -1.83251 13.0552 0.00738478 -0.00960402 0.00482026 
105 2 11.9898 6.5503 19.1049 -0.00990055 0.0155813 -0.0324582 
445 1 14.7835 -0.735774 12.8626 -0.0186791 -0.00149235 0.0327442 
446 1 12.5729 0.135751 13.2581 0.0151993 -0.0365614 0.00938356 
448 1 18.0318 0.816245 12.5035 0.0416304 0.00614567 0.0228582 
439 1 14.0402 0.471691 12.9635 0.00330141 -0.00802967 -0.00742335 
440 1 16.5275 0.434154 12.0728 0.00819312 0.00722478 -0.0127563 
179 2 34.3653 0.838797 16.0358 -0.0496143 0.0128313 0.000884092 
433 1 14.3626 1.67031 12.4622 -0.0100271 -0.0102184 0.0125159 
451 1 18.5254 1.9162 12.177 0.0116132 0.0237527 -0.00355596 
434 1 15.627 1.48582 12.0875 0.011632 -0.00116209 -0.00689712 
458 2 12.8102 -0.827783 13.6772 -0.00242322 -0.00921842 0.0226058 
463 2 19.6943 2.42093 12.2113 0.120704 -0.0900044 0.0395662 
460 2 18.4542 -0.0976518 12.9587 -0.0489444 0.038772 -0.0173192 
447 1 16.0634 -0.848771 12.3238 0.00444083 -0.00767058 0.0236275 
459 2 16.0503 -1.95732 12.4796 0.065556 0.0155215 0.0162486 
416 1 33.8074 17.6204 23.2722 -0.0127498 -0.0203246 -0.0168198 
428 2 33.1175 16.8059 22.8605 0.0124089 -0.0688166 0.0307437 
427 2 31.5687 17.5428 24.9905 -0.0296489 -0.0124832 0.021964 
431 2 35.9251 17.3551 22.4997 -0.00222736 0.0269258 0.0453256 
402 1 35.5753 19.7432 24.92 -0.0147858 -0.00863612 0.0388232 
419 1 35.1358 17.8494 23.1831 -0.0138683 -0.00723097 0.0271804 
415 1 32.3546 18.1459 25.2941 -0.0183247 0.0240006 0.013662 
208 2 15.6191 21.8692 26.3155 -0.0617565 0.0308392 0.0378417 
196 1 15.3883 22.9414 26.8505 -0.0208549 0.00538416 0.00632674 
211 2 14.3411 23.1406 25.3142 0.0503931 0.0282098 -0.0255924 
199 1 14.5876 23.7823 26.1451 -0.00117629 -0.00838767 0.0155956 
188 1 16.2121 23.3553 28.1671 -0.0144364 0.0144273 -0.0240839 
195 1 16.9144 22.3619 28.5083 -0.0124775 0.0304404 -0.00891577 
207 2 17.2751 21.1512 28.7136 0.0402284 0.0478648 0.0581182 
193 1 18.0001 22.8016 29.4211 0.0151393 -0.00198669 0.00784824 
406 1 33.4946 18.5656 24.4324 -0.00257183 0.00845747 0.00153108 
400 1 34.2412 19.7449 25.0393 0.038412 -0.0103694 0.00254036 
412 1 31.7963 18.6681 26.6035 0.00699159 0.00021314 0.0051776 
424 2 31.0824 18.3272 27.2601 -0.0680596 -0.0211476 0.0371303 
423 2 31.2156 20.6233 28.1529 0.0902689 0.0897653 -0.0549526 
399 1 35.37 22.131 25.3518 -0.00203805 -0.016093 0.00566291 
398 1 33.7811 20.4144 26.241 -0.00820888 0.0351137 0.00130668 
404 1 32.6088 20.0481 26.9149 0.001573 0.00674406 -0.00995328 
397 1 34.0606 21.9959 26.1902 -0.00669852 0.0235149 0.00765087 
411 1 32.0442 21.272 27.7948 0.00686327 0.00107317 0.0282174 
409 1 33.0117 22.1862 28.3789 -0.0262236 0.0339632 -0.00522507 
421 2 33.5287 22.8213 28.9645 0.0592156 -0.0766475 -0.0213511 
410 1 34.7406 23.8905 27.5047 0.0118131 -0.00346916 -0.00301447 
403 1 33.7231 22.9613 27.2276 0.0246372 -0.00968885 0.00925897 
182 1 16.0054 24.7164 28.5859 -0.0316247 0.00931242 -0.0019333 
212 2 12.424 24.3611 26.4088 -0.0297053 -0.0130327 -0.019863 
200 1 13.0157 25.2772 26.659 0.00492251 -0.00533722 -0.00217943 
533 2 35.8061 31.3884 32.9164 0.0633871 0.0597873 0.043577 
190 1 14.4208 25.1492 26.627 0.0192445 -0.010375 0.00890314 
186 1 14.6999 26.4665 28.5909 -0.0108645 -0.00552323 -0.0104591 
203 1 12.5389 26.0968 27.5514 -0.0253172 -0.00729475 -0.0119028 
192 1 13.5289 27.1497 27.8871 -0.0107707 0.00144583 0.0136786 
204 1 13.3905 28.3044 28.8274 -0.00454297 -0.0082254 0.00662495 
202 1 13.3756 28.1339 30.281 0.00277247 0.0305859 0.0219501 
184 1 15.1286 25.5175 27.7382 -0.017439 -0.000746518 -0.00984905 
185 1 15.2831 27.0723 29.7236 -0.00888181 -0.0159104 0.00553336 
181 1 16.9622 25.2943 29.5841 -0.0115084 0.00479135 -0.00790178 
197 1 18.4624 26.2609 31.6826 0.0174784 0.006858 -0.0106886 
413 1 35.2106 24.1823 26.1892 -0.0183433 -0.0036321 0.0113887 
422 2 34.7987 24.7431 28.2911 0.0619582 0.0316514 0.0196042 
205 2 18.8754 22.1246 29.3085 0.0500311 -0.0312738 -0.0434589 
187 1 17.9743 24.3319 29.9709 -0.00113737 0.00660087 -0.0114402 
194 1 18.8172 25.2995 30.7722 0.0107304 -0.00715684 -0.0271783 
206 2 19.3941 24.2636 31.0036 -0.0508848 -0.0313124 0.0572154 
210 2 16.626 27.4457 33.3413 -0.0561044 0.015465 -0.036335 
189 1 17.131 26.7713 31.3739 0.0111932 -0.0108818 0.00655883 
214 2 12.3485 27.9059 30.891 0.0410953 -0.0637391 -0.02358 
198 1 16.4938 27.5427 32.2781 -0.0287497 0.0171142 -0.0107435 
201 1 15.1438 27.6129 32.2931 -0.0157601 0.0048541 0.00583126 
213 2 13.9744 27.5043 32.5662 0.0697878 0.0630206 -0.048342 
191 1 14.6347 27.762 30.7899 -0.0526213 -0.00722257 0.0117986 
183 1 16.6044 26.4787 30.1467 -0.0287317 0.00678574 0.00494206 
209 2 19.1445 26.2626 32.655 0.0327622 -0.000126304 0.0870616 
425 2 34.9225 25.2632 26.1863 -0.0497724 -0.0247533 -0.0695972 
408 1 35.8732 19.0926 23.7431 -0.00961046 0.00540068 -0.00220272 
401 1 35.868 21.0667 24.6784 -0.00855308 -0.00125833 0.00745996 
224 1 38.3097 -0.282665 -7.07358 0.0110845 -0.0189674 -0.0091833 
232 1 37.8625 -1.65039 -7.75065 -0.0292887 0.0189959 -0.0162378 
235 1 37.7668 -2.09139 -9.10427 -0.0184774 -0.0140439 0.0289388 
226 1 38.9831 -1.4696 -9.76733 0.00839303 -0.00236353 -0.00274315 
220 1 39.0068 -0.0052061 -9.4637 0.032652 0.0133892 -0.0070952 
231 1 38.0991 0.398567 -5.86318 -0.0156423 3.61968e-05 0.000301387 
244 2 37.396 -2.60673 -7.21596 0.0342533 0.0103664 0.0802339 
247 2 37.0924 -2.93305 -9.63054 -0.0327076 0.0307018 0.0590432 
236 1 39.3583 -2.08796 -11.0189 0.0203593 -0.00111266 -0.00624783 
243 2 37.5575 -0.316888 -4.91111 -0.0427718 -0.128818 -0.0593243 
493 2 53.9782 -0.0514358 -8.44668 -0.0507858 -0.0806674 -0.0384194 
481 1 54.6292 -0.67274 -7.79438 -0.00308339 -0.00934632 -0.0207451 
475 1 54.7106 -0.423592 -6.313 -0.0290384 0.0318739 0.017773 
495 2 54.6362 -2.96702 -8.57448 -3.57764e-05 -0.0306572 -0.0691095 
483 1 55.0193 -2.06483 -8.20325 0.010335 -0.0251336 -0.00844398 
476 1 56.0292 -2.86846 -7.40912 -0.0208152 -0.00110938 0.00676876 
496 2 56.939 -4.98524 -8.7673 0.0121339 0.0670098 0.0824226 
484 1 56.5838 -4.17577 -7.8375 0.00404663 0.00687656 -0.00222674 
487 1 57.9253 -4.51982 -7.24751 -0.0292234 9.94161e-06 -0.0397074 
499 2 58.2541 -5.41857 -6.45485 -0.0100905 0.107766 0.100312 
470 1 56.7299 -1.85886 -6.47681 0.00229416 -0.0123629 0.00765554 
478 1 58.9656 -3.39911 -7.18435 -0.00484646 0.017667 -0.00198109 
218 1 38.5983 0.402999 -8.19068 -0.0024329 0.0231975 0.0237982 
217 1 39.0205 1.68228 -7.98183 0.0199835 0.00885418 0.0175283 
223 1 39.0627 2.39929 -6.78552 0.00856952 0.0313333 0.0214004 
219 1 39.4991 2.23973 -8.98962 0.0288396 -0.0125396 -0.0274322 
222 1 39.4038 0.792688 -10.7012 -0.0029351 0.0105609 -0.00184303 
221 1 39.5794 2.18294 -10.4578 0.00485692 -0.00865648 0.00379418 
227 1 40.4081 2.89476 -11.4628 -0.00738816 -0.00692048 -0.0155316 
237 1 41.1931 4.07773 -11.1457 0.0182147 -0.0165251 -0.028357 
249 2 41.8723 4.63063 -11.896 -0.0635178 -0.0252689 0.00379781 
225 1 40.1616 3.54079 -8.8254 -0.00712668 -0.000767561 0.00345657 
234 1 40.9007 4.29965 -9.73829 -0.000261061 0.00938397 0.000753464 
246 2 41.3309 5.22194 -9.60367 0.00440983 0.0737402 -0.0228861 
233 1 39.7678 4.47377 -7.82772 -0.0135196 0.000675381 -0.0151829 
245 2 39.1797 5.50064 -7.74819 -0.0332757 -0.00787532 0.0293422 
239 1 39.6857 -1.16396 -12.0258 -0.0281938 0.0212689 -0.00633074 
230 1 39.5057 3.78453 -6.66512 0.0219857 0.0161701 -0.00184029 
14 1 44.032 2.84053 -7.1087 -0.0274914 0.010231 -0.00791779 
26 2 42.8994 2.97753 -7.02242 0.0129737 0.00142219 -0.10492 
7 1 44.4243 4.09292 -6.32391 0.0127695 -0.000214071 0.0172375 
25 2 42.9725 5.52373 -6.02055 -0.0414451 0.00560467 -0.0404047 
13 1 43.9287 5.51475 -6.33538 0.0175889 -0.00677569 0.0126156 
1 1 45.7241 4.48732 -6.33848 -0.00471983 -0.00446303 -0.00967934 
3 1 46.8455 3.62845 -6.39679 -0.0183605 -0.0133565 -0.0326913 
2 1 46.2802 5.84514 -6.1121 0.0186884 0.00618462 0.00281277 
17 1 45.0118 2.32471 -8.10029 -0.00537676 -0.00763494 -0.0180908 
29 2 45.011 1.34689 -8.8005 -0.0428163 -0.00395196 -0.0422002 
18 1 47.5424 2.43943 -8.48501 0.00656716 0.0196894 0.00339381 
30 2 47.1587 1.89847 -9.22087 -0.0313005 0.118767 -0.0239233 
9 1 46.3373 2.7608 -7.52223 -0.00544531 0.027195 0.00457024 
5 1 48.27 3.85781 -6.37941 -0.00610563 -0.0181453 0.0102188 
494 2 53.1509 0.467384 -5.1775 0.00962045 0.0656057 -0.0543426 
6 1 48.8342 4.93765 -6.12696 0.0372375 0.00362045 -0.0205936 
21 1 48.7228 1.7983 -7.90704 0.0134887 -0.00772003 -0.0192284 
33 2 49.5536 1.0586 -7.99811 0.068235 -0.00884292 0.0101869 
11 1 49.1776 3.07039 -7.26166 0.00200004 -0.0195643 -0.0142257 
15 1 44.0377 6.82172 -7.11701 -0.0184008 -0.0299771 0.027762 
27 2 43.9981 7.75719 -7.70746 0.0341885 0.00813362 -0.0378808 
8 1 45.5101 6.88945 -6.71659 -0.00316042 -0.0146907 0.019569 
16 1 46.0876 8.09237 -7.5118 0.0174869 0.0110159 -0.0216231 
28 2 45.6397 8.52254 -8.46758 -0.0892594 0.0745789 -0.0148034 
19 1 47.4092 8.07044 -7.49809 0.0146852 4.20103e-05 0.0181916 
4 1 47.7147 6.13163 -5.96729 0.00610746 -0.00528063 0.00938948 
31 2 47.8754 8.3977 -8.4247 -0.0279666 -0.0350113 -0.0118001 
10 1 48.1248 7.3427 -6.31232 -0.013671 0.0143828 0.0188006 
393 2 53.5025 -6.31532 -3.3044 -0.0626994 0.0212177 -0.0238108 
482 1 54.1653 0.010228 -5.18265 -0.00429405 -0.00318573 0.00469266 
394 2 51.2701 -5.67017 -2.85763 -0.0551966 0.0533189 -0.0771902 
371 1 53.1053 -4.77699 -2.17669 0.00144567 -0.00703717 -0.00804249 
381 1 53.9075 -5.65285 -2.82894 0.0319876 -0.00604822 -0.00878199 
382 1 51.6962 -5.26285 -1.92847 -0.0194998 0.0116228 0.00365675 
384 1 51.0953 -4.92835 -0.620851 0.0146466 -0.00636985 0.0115271 
365 1 53.5993 -3.52154 -1.55296 0.00771954 -0.0152603 -0.00711836 
390 2 55.9388 -6.44506 -3.15474 -0.0722261 -0.0313149 -0.000264674 
378 1 55.3123 -5.4353 -3.09819 0.00929382 -0.0122118 -0.0258397 
471 1 56.8377 -0.296138 -5.08539 0.0331832 -0.000160703 0.0151082 
469 1 56.0046 -1.08838 -5.71327 -0.0115473 0.00732383 0.0117469 
472 1 58.0722 -2.58571 -6.23061 0.0139124 0.0136125 -0.0266202 
474 1 59.1038 -1.69825 -5.69193 0.00929982 -0.00902339 -0.0366575 
374 1 57.8764 -3.34434 -1.46485 -0.000283152 -0.0104528 -0.0440976 
473 1 58.4142 -0.647312 -4.94627 0.00124339 -0.0376889 -0.000836609 
386 2 58.8722 -3.38271 -1.27223 -0.0669354 -0.093338 -0.0431682 
369 1 55.8181 -4.16918 -2.536 -0.019692 0.0203935 -0.0182916 
389 2 57.7155 -5.39493 -2.33198 0.0649934 0.0128855 0.100078 
377 1 57.1926 -4.36641 -2.26274 0.00948634 0.0174829 -0.0218647 
363 1 55.0295 -3.13847 -1.84604 0.00979464 -0.0142135 -0.0212019 
385 2 58.0799 -1.39772 1.00722 -0.0437506 -0.0129336 0.0336469 
229 1 38.6331 1.61577 -5.81731 -0.0344469 0.0172214 -0.00123914 
241 2 38.7043 2.06108 -4.80622 0.0331838 -0.0285901 -0.0417057 
242 2 39.5651 4.46467 -5.74077 0.0456878 0.00223793 0.0434631 
497 2 54.8176 1.09237 -3.1906 -0.0393501 0.0486685 0.0622534 
22 1 50.6295 3.49717 -7.48245 0.00895659 0.023882 -0.000499105 
12 1 50.1726 5.44074 -6.17384 -0.003119 0.0119178 -0.0200952 
34 2 51.0437 2.57689 -7.81385 0.0369576 0.0488815 0.000784982 
36 2 52.0417 4.71361 -6.04068 0.0885591 -0.0728052 -0.0464523 
24 1 51.1242 4.42426 -6.64189 0.0427891 -0.00367282 -0.0159224 
485 1 54.8951 0.567021 -4.07846 -0.000321451 -0.0088437 -0.00947253 
498 2 56.3415 1.91734 -2.56462 0.0338002 0.0588891 0.167844 
486 1 56.8746 1.33233 -3.06797 0.0185645 0.00089952 0.00144264 
477 1 56.1886 0.546091 -4.10849 0.0240808 0.00818214 -0.00519048 
489 1 58.2524 0.809342 -2.68169 0.0103813 0.000422921 0.00611923 
501 2 58.54 1.16286 -1.61153 -0.00743479 0.0496604 0.00246306 
479 1 58.9317 -0.0189303 -3.87833 0.0126146 -0.0145687 0.0154795 
503 2 58.6094 -2.46582 -7.93588 0.0303693 -0.0380231 -0.00745001 
248 2 39.4278 -3.17126 -11.006 -0.00134729 0.0255263 0.0187361 
20 1 49.5099 7.87571 -6.34444 0.0178166 0.00194757 -0.0250199 
23 1 50.4968 6.84655 -6.4845 -0.0120974 -0.0231512 -0.0156722 
35 2 50.8339 7.27062 -7.43126 -0.0452838 0.00417835 -0.0773062 
32 2 49.8203 8.75269 -6.847 0.00540811 0.0405177 0.109637 
391 2 54.9814 -2.45253 3.63738 -0.0242486 0.0168987 -0.0335947 
392 2 52.1472 -2.50343 3.08865 0.0649477 -0.0633672 0.080974 
396 2 50.0289 -5.39675 -0.260078 -0.0487804 0.0223612 -0.0299826 
372 1 52.1714 -4.20218 0.0884938 0.0133853 -0.0378969 -0.0448494 
395 2 50.5155 -4.04859 1.39458 0.0155393 -0.0527474 -0.0226736 
366 1 53.3444 -3.86197 -0.234082 -0.00165666 -0.0100879 0.0246802 
383 1 51.587 -3.71578 1.31492 0.0218816 -0.0128707 -0.0196408 
364 1 54.1841 -2.93355 0.451182 0.0043836 -0.0139766 -0.018155 
370 1 53.6219 -2.69174 1.70771 -0.026392 0.00942038 -0.0110483 
380 1 52.3223 -2.7862 2.07718 0.00346884 0.00265734 -0.00390249 
379 1 54.7201 -2.19599 2.5897 -0.000336988 0.00107658 -0.0269265 
388 2 56.0618 -0.190987 2.50112 -0.00532275 0.0406277 0.0727523 
387 2 56.8204 0.817308 -0.686071 -0.0458059 0.05413 0.100913 
373 1 57.3837 -1.18585 0.176015 0.0148427 0.0195541 0.000996221 
362 1 54.5949 -1.86012 -0.13386 0.0187515 0.0131544 -0.0227391 
376 1 55.2649 -0.928466 1.99639 0.0122814 0.00933667 0.000355775 
368 1 55.2292 -0.72634 0.584806 0.00924574 0.0196707 -0.0222654 
375 1 56.4773 -0.121664 -0.0258147 -0.00651712 -0.00127548 -0.0254182 
367 1 57.1973 -2.05575 -1.00433 0.0133586 0.00326356 -0.0117577 
361 1 55.6024 -2.10201 -1.21478 0.0211165 0.00451117 -0.0065815 
228 1 39.3984 0.334314 -12.0138 0.00226593 -0.00738203 -0.0100205 
102 2 56.0566 10.8852 32.4911 0.0100999 -0.0446391 -0.00810077 
101 2 58.7754 9.02155 32.1324 -0.0730139 -0.0343519 0.037675 
251 2 40.4059 -1.74033 35.2971 0.0410303 -0.0777828 -0.097823 
89 1 59.1085 10.1331 32.2137 0.00182922 -0.00869355 0.0358314 
240 1 39.7249 1.10853 34.8072 0.0113475 -0.00589731 0.0267938 
252 2 39.4148 0.897866 33.8126 -0.0939974 0.0547596 -0.0461869 
238 1 40.7411 1.89162 35.409 0.015383 0.00420385 -2.77562e-05 
250 2 41.3645 1.17971 36.1689 -0.0381804 -0.0431271 0.014951 
81 1 58.3845 11.3522 32.2937 0.00337502 0.0162737 -0.0062188 
90 1 56.8434 11.5035 32.148 0.0217742 0.031234 0.00451615 
525 1 36.9074 31.5465 -11.0538 0.0136585 0.0151407 -0.0165201 
534 2 36.1024 31.5978 -10.1082 -0.0570441 -0.0400605 0.00314805 
516 1 41.2498 32.3791 -10.6791 -0.0219377 0.000797903 0.0213883 
526 1 39.1797 32.227 -9.9693 -0.0246692 0.00881234 -0.0169546 
528 1 40.3544 32.4811 -9.46531 0.000114437 0.00956312 0.00227444 
515 1 38.466 31.9361 -10.8933 -0.00641174 -0.017308 0.00625335 
538 2 40.5349 33.053 -8.46564 0.0167823 0.0424323 -0.0970261 
299 1 44.4176 22.7413 11.5704 0.00567633 0.0245506 -0.0365488 
527 1 42.7025 31.8835 -10.6467 -0.00535131 0.0118472 -0.0187175 
539 2 43.3926 31.4436 -9.95858 -0.0258898 0.0550345 -0.0380884 
303 1 48.5139 27.275 10.6572 0.02284 -0.0118477 -0.0186336 
107 2 58.9385 17.3073 -12.1254 0.180187 0.0804863 -0.053411 
321 2 43.2278 22.3038 10.3769 0.0350078 0.0204168 -0.063963 
309 1 43.1372 23.1945 10.9681 0.00834804 -0.00865595 0.0210179 
289 1 46.4461 25.9262 10.6904 -0.00487769 0.00298267 -0.000168451 
291 1 45.3566 25.0143 10.799 -0.0144584 -0.00414105 -0.0402799 
295 1 46.1858 27.2126 10.2189 0.000615778 -0.0071054 -0.009488 
305 1 43.5956 26.8049 10.1549 0.0188197 -0.00315611 0.0154241 
318 2 41.9079 24.7535 10.5198 0.0438393 -0.0115921 -0.0674674 
302 1 44.821 27.483 9.72721 -0.00982079 0.0316997 -0.0238813 
314 2 44.7544 28.4584 9.08398 -0.0443263 -0.0674419 -0.0550808 
317 2 42.621 27.1484 9.82316 -0.0847731 0.0603 0.0840161 
297 1 44.0263 25.3359 10.2986 -0.0216816 0.00631113 -0.015491 
306 1 43.0157 24.451 10.2703 -0.0143062 -0.0104593 0.0204781 
313 2 48.002 29.1673 9.55872 0.0311176 -0.0279572 0.0215989 
301 1 47.488 28.1662 10.2488 -0.0226671 -0.00592697 0.0041098 
293 1 45.5271 23.7265 11.3697 0.00211752 0.0143271 0.00599711 
290 1 47.898 25.3582 11.0726 0.00697021 0.00913661 -0.0108466 
296 1 48.6325 26.387 11.8667 -0.00446452 0.00168752 -0.00757713 
524 1 43.5053 32.2107 -11.663 0.0115822 -0.0376433 0.0108223 
315 2 49.573 26.796 10.2529 4.21371e-05 0.0126092 -0.00542086 
292 1 47.8293 23.9797 11.7375 -0.00640943 -0.0106639 0.0284513 
536 2 44.5308 31.9857 -11.7175 -0.0064181 0.0711749 -0.00685001 
322 2 43.7488 21.0224 12.6632 -0.0695853 -0.140578 -0.0625369 
513 1 37.4803 31.7272 34.424 0.0172519 -0.00137983 0.016471 
312 1 45.7156 21.1159 13.0918 0.00513756 -0.0121596 -0.0185206 
294 1 46.5481 23.576 12.2229 -0.0073434 -0.00682959 -0.00114418 
509 1 39.3347 32.035 35.8691 -0.0145579 -0.00222665 -0.0200114 
324 2 45.9034 21.0186 14.0477 -0.0390255 -0.0501035 0.054273 
300 1 46.62 22.3084 13.087 0.0152199 0.00333344 -0.0123591 
310 1 44.559 21.5255 12.3886 0.0108678 -0.004106 -0.0151887 
311 1 47.8399 21.6581 13.4959 0.0129563 0.0114697 0.0080789 
323 2 47.8678 20.7117 13.7643 0.00315952 0.0191077 -0.0942084 
308 1 49.0901 22.4897 13.4962 0.023046 0.000176431 -0.0377041 
298 1 48.8399 23.7326 12.7906 0.000730393 0.00902254 -0.00103008 
320 2 49.9272 21.8936 13.6357 -0.0821686 0.0518149 0.0750027 
307 1 49.3307 24.9732 13.2657 -0.0106106 0.0190029 -0.0110245 
319 2 49.8423 24.8679 14.3428 -0.069205 0.0233175 0.0465872 
519 1 41.1726 32.5099 31.1056 0.00863171 -0.0202777 0.00945604 
521 1 36.8452 31.5848 33.1579 0.0247577 0.0192809 0.00489783 
523 1 43.6931 32.1705 34.0996 -0.00435388 -0.00192169 -0.0120115 
532 2 43.5866 31.1688 32.0166 -0.0449374 -0.0208707 -0.0300192 
93 1 56.3685 12.7068 32.7038 0.0055713 0.0274357 0.00214564 
304 1 49.3692 26.2383 13.0573 0.00460737 0.0131572 -0.030005 
535 2 44.6057 32.5112 34.6479 0.040991 -0.0661697 0.038745 
316 2 49.9489 26.8685 13.9916 0.00789556 -0.033308 0.0392095 
520 1 43.219 31.6382 32.7488 -0.00366412 0.00750834 0.0245755 
420 1 36.5682 19.5803 22.7802 0.0163912 -0.0161145 0.00236334 
432 2 36.8278 18.7893 22.0189 0.051362 0.0639554 -0.025626 
407 1 37.3181 21.1324 24.0474 -0.00473866 -0.00134895 -0.00372626 
418 1 37.384 20.9087 22.6097 0.000301506 -0.0187383 0.0114169 
430 2 37.9509 21.0025 21.6501 0.0408806 -0.0378264 -0.0324181 
417 1 38.0222 22.2617 24.6992 -0.0110774 0.0105246 -0.000579104 
429 2 38.7996 22.5054 25.5885 0.0496795 -0.0855335 0.100078 
510 1 40.6488 32.3165 36.0249 0.0356158 -0.00325445 0.0145071 
414 1 37.3219 23.4553 24.33 0.00790947 -0.0104571 0.0149118 
512 1 42.0236 32.2775 32.3998 -0.00720136 -0.0200372 -0.00772314 
426 2 37.9326 24.4596 24.5761 -0.037968 -0.0211868 0.00612871 
75 1 58.9982 12.6069 32.5647 -0.0301509 -0.0223265 -0.0295044 
94 1 56.485 15.3907 33.7699 -0.000156231 0.0302523 0.0114481 
106 2 56.75 15.9171 32.8135 0.0650464 -0.000949623 -0.0288703 
77 1 58.3811 13.8886 32.962 0.00133598 -0.0198656 -0.0169487 
96 1 57.2984 15.8969 34.7318 -0.013285 0.00833612 0.00526119 
514 1 42.8291 32.1777 35.0885 0.00427985 0.0147236 0.010955 
84 1 58.734 15.7652 34.3589 0.0215255 0.0231201 -0.00731755 
78 1 59.0877 15.2399 33.0203 -0.00676884 0.0264724 0.0152767 
95 1 59.3478 16.6101 35.1712 0.0131975 -0.00581925 -0.0394482 
507 1 38.9872 32.3163 34.4804 0.0048698 -0.0200056 -0.000255534 
108 2 57.1133 16.248 35.7547 0.0724972 -0.0460476 0.0776099 
83 1 56.93 14.1412 32.9992 0.00794963 -0.00460932 0.017922 
522 1 36.8365 31.5889 35.72 0.01028 0.0237466 -0.0150914 
529 2 39.8818 33.5016 29.9175 -0.0284134 -0.0363677 0.0580622 
530 2 37.6743 32.1213 30.9009 -0.0252928 -0.0632167 0.0627464 
518 1 37.7262 32.1547 31.9717 -0.0103944 0.0219348 -0.0223007 
511 1 38.895 32.8781 32.1204 -0.0288042 -0.000310423 -0.00516086 
531 2 41.5484 32.8407 30.0969 0.0131381 -0.0109435 0.0149329 
506 1 41.0319 32.6645 33.5849 -0.0046498 0.00249116 0.0215547 
508 1 41.4482 32.1053 34.8262 0.0257151 -0.0313406 0.00175363 
505 1 39.5004 32.7077 33.4182 0.0273989 -0.00484936 -0.00449378 
517 1 39.8888 32.9262 30.9975 -0.0121645 -0.0163951 0.00576614 
405 1 36.0323 23.4093 25.0743 -0.00859165 -0.0223606 -0.00563791 
500 2 60.2543 -5.5991 -6.36353 -0.0173489 0.026783 0.11368 
168 1 71.8475 9.69875 3.5744 -0.00445956 0.0203285 -0.019129 
492 1 60.8559 -1.2647 -4.07908 0.0106531 -0.000227146 0.00998719 
504 2 62.0538 -1.40568 -3.83545 0.0139487 0.00360299 0.00422573 
491 1 60.3835 -3.42535 -5.56704 0.0111512 0.0152554 -0.000907316 
180 2 72.4638 9.93107 2.66902 0.018068 -0.0226429 -0.0654191 
490 1 60.2933 -0.50738 -3.3323 0.0135869 0.000993324 -0.00125066 