ITEM: TIMESTEP
920000
ITEM: NUMBER OF ATOMS
576
ITEM: BOX BOUNDS pp pp pp
-1.2000000000000000e+01 8.4000000000000000e+01
-1.2000000000000000e+01 3.6000000000000000e+01
-1.2000000000000000e+01 3.6000000000000000e+01
ITEM: ATOMS id type x y z vx vy vz 
355 2 1.82115 -7.10297 -11.2208 0.000598471 -0.018275 0.0350735 
75 1 1.39737 -6.70887 -7.60917 -0.0053439 0.00436138 -0.000653256 
74 1 1.7447 -6.836 -10.2136 -0.023247 0.00811096 0.000200632 
79 1 0.00586685 -8.42913 -9.16707 -0.0106355 0.00137413 -0.0286632 
86 1 -0.147726 -9.22281 -7.81189 0.00230593 0.0112623 -0.01859 
73 1 0.999516 -7.39293 -9.14021 -0.0452332 -0.00777795 0.0219522 
81 1 1.00259 -7.24671 -6.29292 -0.00302284 -0.0119844 -0.0179248 
97 2 0.295762 -8.69448 -10.0616 0.0532401 0.0218732 0.00723029 
89 1 0.299228 -8.28586 -6.87664 0.00831852 0.000820166 -0.00739632 
101 2 -0.530342 -10.093 -7.49668 0.0581031 -0.0644512 0.0568263 
96 1 0.0263489 -2.58087 -8.38244 -0.0219257 0.00160694 0.000174043 
106 2 -0.316719 -1.35938 -8.56478 -0.0230123 -0.0271494 -0.10533 
76 1 2.13284 -5.40719 -9.91782 -0.00586172 -0.0131421 0.0372154 
102 2 -1.20633 -2.72581 -6.46873 0.0167957 0.0289698 0.0293778 
94 1 -0.34719 -3.34878 -7.22706 0.0311118 0.00565016 0.00316315 
95 1 1.7445 -2.91099 -10.3889 0.0284425 0.0236368 0.00764983 
77 1 1.21747 -5.19515 -7.59201 0.00225905 -0.00695356 0.0449472 
78 1 1.44721 -4.6992 -8.85056 -0.00751557 0.00870419 -0.0204345 
83 1 -0.019108 -4.69549 -6.8776 -0.0295153 -0.0199905 -0.00494163 
84 1 1.0786 -3.26691 -9.16769 0.0157797 0.0149183 -0.00139824 
82 1 2.76202 -4.91003 -11.1711 0.0148683 0.00169868 -0.0119994 
107 2 1.0823 -2.5131 -11.5254 -0.028772 -0.0624455 -0.0420496 
90 1 0.502729 -6.27592 -5.23515 -0.00967408 -0.0154038 -0.0111665 
93 1 -0.566677 -5.21426 -5.56179 -0.00982023 0.0057112 0.0119763 
92 1 2.62594 -3.44403 -11.4306 0.00585418 -0.0266168 0.0220177 
91 1 3.9918 -5.25718 -11.7203 -0.0167096 0.00438091 0.014291 
103 2 5.94689 -6.02617 -11.9559 -0.0320107 0.0326284 -0.0215634 
466 2 9.97408 -4.89743 28.7145 0.0130284 0.0104946 0.0780159 
244 2 -3.93055 1.1067 29.7537 0.022687 0.0520178 0.0794259 
232 1 -2.90151 1.78862 29.6832 -0.00269709 0.00170255 0.00369634 
235 1 -3.33342 2.63993 30.6117 0.0131334 0.00872051 -0.0133364 
224 1 -1.74812 2.1065 28.745 0.00754739 0.0139899 -0.0234865 
218 1 -0.696139 2.77879 29.1817 -0.0192818 0.00434379 0.0131319 
243 2 -2.7891 1.67658 27.1049 0.0353596 -0.0169191 0.0217884 
231 1 -1.8292 1.86993 27.3256 -0.0213994 -0.0105874 -0.0258795 
242 2 1.59091 4.71538 26.0169 -0.0186447 0.0514858 -0.0319527 
229 1 -0.878127 2.28726 26.3864 -0.0290144 0.0117226 0.0296619 
241 2 -1.00845 2.51386 25.2745 -0.0164043 -0.0274938 0.0221374 
217 1 0.338016 3.52872 28.4638 -0.00893808 0.0287884 -0.0266761 
223 1 0.0149158 3.29868 27.0865 -0.00392805 -0.014078 -0.0116667 
230 1 1.31041 3.80417 26.5887 0.0251524 0.00376956 -0.00336174 
219 1 1.22297 4.48295 28.9426 0.00131273 0.0138561 0.0153891 
245 2 3.57849 3.33273 26.8341 -0.106641 0.0192718 -0.0263852 
225 1 2.73509 4.65739 28.5822 -0.00543912 -0.0216755 -0.0275441 
233 1 2.66987 3.80432 27.2512 -0.0065404 0.0212724 -0.0122025 
71 2 -7.6708 -6.33447 33.8733 0.0627622 -0.0457155 0.0286237 
570 2 -10.304 -5.04847 29.1034 0.0467331 0.0352143 -0.0373602 
385 2 -10.4177 -5.01371 28.3982 -0.0248013 -0.0885959 -0.0661227 
88 1 5.03326 -5.75035 35.5762 0.0182598 0.00591654 -0.00689124 
104 2 3.13527 -3.14466 35.7066 0.103073 0.0444301 0.0202316 
105 2 10.5191 -4.74896 28.1796 -0.0500497 0.0316989 -0.062235 
504 2 -7.20015 -6.86201 34.2599 0.0515612 -0.0497166 -0.0734631 
247 2 -4.22413 2.72481 31.086 0.0810009 0.0329066 0.102523 
226 1 -2.34191 3.6276 31.0261 0.0122573 0.00795994 0.0249445 
220 1 -1.00078 3.42982 30.4993 0.0184137 0.00228362 0.00842321 
251 2 -3.64586 4.62643 32.3773 0.0276464 0.0363442 -0.0886523 
236 1 -1.53966 4.62356 32.973 0.0101812 0.0146167 0.0222839 
239 1 -2.53115 4.75675 31.9648 0.00187375 -0.0112282 0.0307607 
222 1 0.12523 4.05187 31.0943 -0.0195323 0.0032252 -0.0067772 
228 1 -0.0274681 4.31374 32.5762 0.0166331 0.00314019 0.0369092 
240 1 1.10724 4.72789 33.3851 0.00976335 -0.00568072 -0.00432596 
237 1 3.63622 4.4046 30.7825 -0.0168249 0.0117276 -0.0157341 
238 1 2.2329 4.31464 32.7032 -0.0262397 -0.0239186 0.0127491 
221 1 1.04453 4.81547 30.3098 0.00982331 -0.0108902 0.0156465 
227 1 2.24904 4.54358 31.1873 -0.01517 0.00429963 0.0127084 
246 2 4.51395 4.49163 28.3553 0.00703792 0.00578831 -0.0178255 
234 1 3.93553 4.75385 29.4985 0.0153502 0.0201062 -0.0216004 
249 2 4.32915 4.25557 31.6659 -0.0350862 0.0754638 -0.0176315 
357 2 3.18158 4.5468 33.2662 0.0773089 -0.0781044 0.0199295 
252 2 1.16586 4.69695 34.4512 0.0232836 -0.0261968 0.00612173 
279 2 -9.94942 31.0938 7.17382 0.070111 0.0146903 0.0495274 
552 1 11.8138 26.5094 -11.7367 -0.0131436 0.0107121 -0.00821905 
260 1 -11.5426 32.8874 5.99952 0.0127793 0.0107147 -0.0158412 
267 1 -10.9646 31.5963 6.52284 0.0185306 -0.00794148 0.00474426 
563 1 11.6806 25.769 -10.6243 0.0141562 -0.0190579 -0.00439601 
268 1 -10.4671 33.7026 5.59455 0.00917625 -0.0297555 0.00817802 
271 1 -10.9583 35.0297 5.54591 -0.00423559 -0.0093784 -0.0106869 
177 2 11.5171 24.6407 -10.5899 -0.0408247 -0.187269 0.10351 
572 2 11.2162 26.3829 -9.76562 -0.0608289 0.0186202 -0.0547887 
280 2 -10.2345 35.7118 5.33144 -0.0388839 0.00355726 0.00752737 
277 2 -11.922 30.207 7.56047 0.0245624 0.0137814 0.0557751 
566 2 5.91897 25.082 31.0812 0.0427537 0.0290979 0.00821132 
561 1 5.92277 25.6865 31.9486 -0.00391506 -0.00072869 -0.0281423 
558 1 5.8918 26.8301 31.0569 0.00612024 0.00477841 0.00971698 
549 1 5.64217 27.9552 30.4629 -0.00314646 0.0130651 -0.00646793 
573 2 6.76499 24.8086 33.5511 0.0283336 -0.0509948 0.000350591 
554 1 5.75076 29.4457 30.787 -0.0104246 0.00251306 0.00535679 
421 2 9.27487 26.5339 35.0819 -0.056281 0.00404608 0.102184 
551 1 6.82438 25.8581 33.233 -0.00292115 0.00490576 -0.00140605 
544 1 9.79259 28.414 35.0274 0.00839239 0.011618 0.0145981 
541 1 7.88802 29.5722 33.544 0.0164228 0.00808959 0.0204239 
543 1 6.86722 28.4486 33.5267 0.00722225 -0.0368086 0.00403091 
542 1 9.00558 29.548 34.4468 -0.0209827 0.00182843 0.0106536 
569 2 5.91196 28.8536 33.1252 0.0206769 -0.0299162 -0.0911465 
545 1 7.48626 27.0782 33.5636 0.00537729 0.00627122 -0.0146821 
546 1 8.83526 27.3961 34.2509 0.0276448 -0.00666386 -0.000543402 
564 1 9.75793 26.9762 32.8471 -0.0159209 -0.00605611 0.0146342 
562 1 10.6142 27.7399 32.2676 -0.00361443 -0.00307211 -0.0101563 
576 2 10.7521 27.3601 31.2791 0.00598221 0.00116473 -0.112081 
559 1 11.88 29.7614 35.1322 -0.0176773 0.0220159 -0.0246365 
557 1 6.64459 29.766 31.4181 -0.00332216 -0.0164571 0.0221795 
567 2 9.12237 32.7317 33.6166 0.010176 0.125662 0.080534 
565 2 8.43905 31.9515 31.0361 0.0111937 0.0371773 -0.0127695 
555 1 9.63322 30.7544 34.1311 -0.0193624 0.004809 -0.0013905 
548 1 9.27969 31.6692 33.0608 -0.00483483 0.0166258 0.0126117 
547 1 7.72158 30.154 32.252 0.00739353 -0.023036 -0.00499858 
553 1 8.37866 31.3697 31.9212 -0.00654772 -0.00638965 -0.00697211 
556 1 11.0401 30.8681 34.7091 -0.0109226 -0.00285063 0.0040237 
568 2 11.5269 31.6111 35.3601 0.0582666 -0.0686268 -0.101583 
497 2 -8.02646 25.1587 29.7415 0.0410829 0.0125869 -0.00237389 
550 1 11.2476 28.4913 35.1516 0.0184168 0.00281334 0.00177894 
327 1 24.6712 1.11047 9.89458 0.0216377 0.0120076 -0.0238871 
443 1 23.8601 -2.24681 -11.1954 0.00745542 -0.0129068 -0.0146078 
453 1 22.3491 -1.61501 -11.3421 -0.014373 -0.00892154 -0.0239561 
450 1 22.0997 -0.344754 -10.8796 0.00683008 0.0015929 0.00992826 
465 2 23.4795 -2.34886 -10.1343 0.042986 -0.0196078 -0.0644504 
458 2 30.5582 -3.77127 -11.3691 0.0697405 -0.0278334 0.033562 
446 1 29.4882 -3.93682 -11.4876 -0.00132635 0.0278487 0.0137307 
461 2 26.2008 -2.96622 -11.0358 -0.0616995 -0.120925 -0.0404151 
449 1 28.6402 -3.3284 -10.685 0.00389493 0.0199797 -0.000306619 
464 2 29.0769 -2.70422 -9.84716 -0.00468525 0.0304205 -0.0676652 
344 1 20.7573 2.46007 11.8569 -0.0265354 -0.0105474 -0.00358777 
441 1 27.2449 -3.36272 -11.1349 0.0239496 0.0119086 -0.00687002 
462 2 21.183 0.411214 -11.4326 -0.0271981 -0.0342117 -0.0561404 
532 2 23.5614 -9.98471 -0.702381 0.0796648 -0.00703231 -0.0494997 
216 2 24.232 1.45914 6.10434 -0.000635284 0.0548853 -0.000324427 
354 2 26.6095 1.24364 6.86705 0.0186438 0.0126871 0.0050936 
342 1 25.7282 0.989064 7.58072 0.0163828 0.0106194 -0.0172045 
333 1 25.6901 0.621003 8.93 0.0231417 0.0285845 -0.026833 
350 2 28.0409 -0.793826 10.7997 0.00764351 -0.0531975 0.0208464 
353 2 27.7459 -0.753151 8.68936 0.034607 0.0111658 -0.025393 
341 1 26.7203 -0.447617 9.19344 -0.0101777 0.0175565 -0.0139874 
338 1 27.0302 -0.408825 10.5204 -0.00139032 -0.002637 0.0302228 
345 1 24.3891 1.42672 7.18205 0.000430227 0.0130921 0.00977442 
360 2 20.2229 2.20216 8.07886 0.0256361 -0.0201867 -0.0610292 
358 2 21.2563 0.998056 7.06414 0.0350627 0.02512 -0.0656376 
348 1 21.123 2.24517 8.59571 0.00761486 -0.00446837 -0.00946898 
346 1 21.8212 1.62041 7.65365 0.0208388 -0.0152634 0.00368022 
330 1 22.9225 2.48845 10.3055 0.00176681 0.0119103 -0.0123057 
336 1 21.5046 2.94769 9.87921 0.0016845 -0.00374859 0.00751602 
329 1 23.6758 2.03331 9.35464 0.0220602 0.00478573 -0.00763364 
335 1 23.3001 1.79411 7.9651 -0.00521205 -0.0169046 0.00119726 
347 1 20.584 3.49924 10.8057 -0.00194851 -0.0261147 0.0242458 
328 1 23.1978 2.51501 11.7106 -0.00254713 -0.0130738 0.00300822 
359 2 19.5324 3.64751 10.3123 -0.0707273 -0.122205 0.0271614 
325 1 25.2514 1.30373 11.3172 -0.00924451 -0.0101482 -0.0237251 
331 1 25.9561 0.0399596 11.4627 -0.00842024 0.01442 0.0261755 
343 1 21.9247 1.26766 13.6779 0.00897089 -0.0103586 -0.00264523 
340 1 23.0796 1.17895 14.5292 -0.0217852 -0.0164178 0.0116561 
326 1 24.1994 1.67722 12.2596 0.00678538 -0.0213873 0.00307977 
210 2 20.195 -6.33525 30.4461 -0.0526047 -0.0802656 -0.0212153 
334 1 21.9186 2.1977 12.391 -0.00546665 -0.00261416 0.0285867 
435 1 26.7071 -3.70382 35.5183 0.031057 -0.0199213 -0.00110592 
351 2 25.4315 -0.587726 14.5606 -0.0194848 0.000303054 -0.00153071 
339 1 25.0481 -0.249074 13.5658 -0.0290841 -0.0320941 0.00628701 
332 1 24.3806 1.07798 13.6497 0.00164454 -0.0126083 0.0104892 
337 1 25.5018 -0.897369 12.4558 0.00667046 -0.00361589 0.00227674 
349 2 26.0427 -2.03956 12.4757 -0.0198457 0.0493898 -0.0084631 
68 2 17.2532 -6.74082 14.8582 -0.0552608 -0.0574134 -0.0903686 
98 2 21.0854 8.95698 34.8706 0.0224238 0.0510668 0.0122542 
460 2 28.431 -7.07514 30.5307 -0.028518 -0.0392166 0.0101836 
451 1 26.9262 -5.80978 30.9931 0.00487988 -0.00365283 -0.0267537 
463 2 26.8958 -4.92239 30.2774 -0.0306927 0.00740237 -0.113506 
448 1 28.0745 -6.5124 31.5435 0.0239916 0.000693942 0.0266092 
456 1 23.1876 -2.85461 34.3537 0.00437352 0.00494476 -0.00922108 
444 1 23.5601 -3.65872 33.2975 -0.0154949 0.0110391 0.0148113 
467 2 22.0552 -4.14528 31.9213 0.0103926 -0.0367512 -0.0913902 
455 1 23.3126 -4.30568 32.0135 0.00985464 -0.0170264 0.00371369 
468 2 22.6872 -1.92204 34.1969 -0.0579773 -0.0616479 -0.0654697 
457 2 30.1107 -6.50622 32.4967 -0.0667551 0.0104516 -0.0380705 
452 1 24.4098 -4.91331 31.4236 -0.0103407 -0.00761334 -0.0130506 
445 1 30.0416 -4.92761 34.322 -0.00727041 -0.00999679 0.00462917 
440 1 28.2066 -6.11342 32.9407 -0.013383 0.00979294 -0.00491774 
433 1 27.609 -4.54543 34.9714 -0.00864266 0.0132789 -0.00383959 
447 1 29.618 -5.8484 33.2502 0.0239059 -0.0157585 -0.0180843 
438 1 24.8524 -4.31483 33.9411 0.0231863 -0.0353739 0.00814226 
442 1 25.6837 -5.07803 31.8062 -0.000441632 0.00753248 -0.00368739 
436 1 26.0276 -4.70325 33.1789 -0.0115964 0.0126962 0.0196762 
434 1 27.2758 -5.35565 33.8449 -0.00442692 -0.0097532 -0.0254229 
437 1 25.3968 -3.7416 35.2277 0.030333 0.00504095 0.00377397 
439 1 29.0983 -4.24444 35.1172 0.00698124 0.00978522 0.0141264 
459 2 30.9086 -4.67729 35.0868 0.0104578 -0.181697 -0.0050147 
284 2 20.5508 -6.53827 29.7569 0.0441257 -0.11874 -0.0183287 
454 1 24.2612 -2.81535 35.5444 -0.00347427 0.0110237 -0.0181521 
356 2 19.9909 2.37568 12.5971 -0.00843463 0.0413799 0.0916047 
195 1 28.9698 16.6367 -10.1632 0.00852361 0.00386857 -0.0093157 
188 1 30.3824 16.6598 -10.6515 0.00627038 -0.011418 0.0184045 
207 2 28.3716 17.6009 -10.1612 -0.0714873 -0.0389024 0.0385618 
193 1 28.3978 15.4708 -10.9097 0.00864229 0.0242586 0.0108881 
205 2 27.8101 14.7709 -10.2849 0.0516086 -0.0410206 0.0252678 
196 1 31.8222 17.0594 -10.0151 -0.0159549 0.0185696 0.030074 
211 2 34.0046 17.3915 -9.63525 0.0136835 0.0145632 -0.07314 
199 1 33.0774 17.4263 -10.3405 0.00509834 -0.00136278 -0.0288527 
190 1 33.0787 17.5752 -11.8776 0.0169786 0.00646014 0.00944818 
208 2 29.4645 15.1591 -11.2462 -0.0215627 -0.0345444 0.020916 
206 2 25.6909 15.8025 -12.0227 -0.0621263 -0.0143109 -0.0395401 
182 1 30.3201 16.7974 -11.9419 -0.0141238 0.00497638 0.0172815 
214 2 28.2382 17.3175 30.623 -0.0742892 0.0148973 0.0309346 
187 1 27.913 15.8137 35.6018 -0.00192676 -0.00407439 0.0205984 
181 1 29.0821 16.4128 35.2226 -0.00822237 -0.0232253 0.0119739 
194 1 26.5317 16.0155 35.1472 -0.00800566 -0.0144691 -0.0210167 
183 1 28.8074 17.2512 34.0642 -0.00385159 0.00604562 -0.00506083 
133 2 27.3148 18.7131 32.5545 -0.034934 -0.0236233 0.0830044 
189 1 27.2723 17.0247 33.414 0.00206448 -0.0341927 -0.0166431 
198 1 27.2695 17.7588 32.1679 -0.00974032 0.0107259 0.00169119 
201 1 28.6718 17.6078 31.5693 0.0197549 0.0139213 -0.0151708 
213 2 30.9717 17.7082 31.461 -0.115475 0.0101531 -0.0553163 
202 1 34.7282 18.739 32.7837 -0.00805973 -0.00412663 -0.00758334 
191 1 29.986 17.3717 32.0884 -0.0105478 0.010082 -0.00270496 
184 1 31.6794 17.1255 35.5461 0.0258621 -0.0091004 0.00480055 
200 1 33.8075 17.2058 34.887 0.0148711 -0.00181199 -0.00194161 
186 1 31.4578 17.5525 34.1976 -0.00294102 -0.00128804 0.0220763 
204 1 35.3001 19.7569 33.0398 -0.0131775 0.0280648 -2.36484e-05 
185 1 30.0819 17.3842 33.5358 0.0184881 0.000756078 0.00222552 
215 2 33.7691 16.1432 35.1292 0.00243713 0.0975182 0.0528678 
571 2 12.8302 29.6449 35.5212 0.054051 -0.0426055 -0.0489663 
197 1 26.1637 16.6174 33.9345 0.025224 -0.0260248 0.0202266 
209 2 25.3636 16.7766 33.0148 -0.0722226 -0.0217355 0.0420495 
192 1 33.8682 17.5898 32.6298 -0.0157068 -0.019657 -0.00349505 
212 2 34.1279 16.9053 31.6492 -0.00695965 -0.00700365 -0.0605837 
203 1 32.7677 17.5864 33.7365 0.0174349 0.000756067 -0.00144884 
560 1 12.0764 27.3032 35.1896 0.00290124 0.00817264 -0.0152106 
135 2 49.2598 2.39471 -10.2442 0.0101522 0.117276 -0.107298 
282 2 50.018 2.83363 -9.86701 0.0170409 0.0980088 -0.0615444 
127 1 44.9241 3.90831 4.87486 -0.0248964 -0.0101476 0.0127486 
140 2 47.6999 3.24615 5.52477 -0.00717192 -0.014348 -0.0347484 
539 2 54.4729 2.03712 5.06267 -0.0114196 0.00759504 0.00779103 
179 2 55.2975 2.45247 5.01977 0.0498495 -0.128817 0.0497217 
138 2 41.0377 -2.17426 9.79795 0.0238722 0.00641967 -0.0171608 
141 2 43.5728 -2.82541 10.2288 0.0534123 0.0352725 0.0308363 
130 1 45.1284 -1.31842 7.18491 -0.00325069 -0.0148924 -0.0212679 
119 1 44.1804 -1.01075 8.17778 0.0192181 -0.00340783 0.00787696 
129 1 43.3868 -1.85522 9.34041 -0.00711362 -0.0125529 0.0184747 
132 1 45.6628 -1.19115 6.09338 -0.00364015 0.0160691 -0.0161753 
126 1 42.2294 -1.8143 9.35474 0.00210546 -0.0218919 0.000677973 
142 2 46.2794 -1.64322 5.29272 0.00510481 -0.0329466 0.0655851 
134 2 39.0614 1.91765 8.77548 0.0820901 -0.120058 0.0359104 
137 2 39.4204 -0.499667 8.3732 -0.0225297 -0.0235553 -0.00558144 
122 1 40.0276 1.41665 8.44283 0.00499145 -0.00469654 -0.000890074 
125 1 40.34 0.0446565 8.54415 -0.0256991 -0.0167747 0.0100035 
496 2 40.1781 3.44704 6.35977 -0.0732553 -0.00196878 0.121157 
121 1 40.81 5.13293 7.50171 -0.0253954 0.0247219 -0.0244086 
115 1 40.9148 2.39725 7.95716 -0.00144933 -0.00409497 -0.0199601 
117 1 41.6098 -0.323263 8.87681 -0.00377922 0.0117281 -0.00513987 
139 2 41.8941 5.10704 8.31392 0.049616 0.108765 0.0175478 
120 1 46.0457 0.27429 6.1402 0.0097518 0.00667108 -0.0201813 
113 1 43.8261 0.38735 7.93046 -0.0342015 0.0184119 0.0263133 
114 1 45.0767 0.956954 6.96889 0.00219047 -0.00475935 -0.00749362 
111 1 42.3614 0.640886 8.14235 -0.00595284 0.026014 -0.00326896 
109 1 42.211 1.97258 7.8572 -0.0179357 0.00573421 -0.0142366 
123 1 41.0453 3.80964 6.95732 -0.00150841 0.0148091 -0.00258772 
116 1 42.4534 3.61435 6.14309 -0.00913543 -0.00271428 0.00609582 
110 1 43.3006 2.78503 7.11061 -0.0208463 -0.0177204 0.000722092 
124 1 43.4427 4.31126 5.23184 -0.0187983 -0.0047951 0.0242765 
112 1 44.4375 2.25629 6.55618 -0.0178435 -0.0105705 -0.017685 
118 1 45.507 2.79169 5.49155 -0.0276518 -0.00370199 0.0109834 
128 1 46.9238 2.42122 5.55904 -0.00354551 0.000859808 -0.00238828 
143 2 48.1301 0.588766 6.35943 -0.0307822 -0.0700668 0.034036 
131 1 47.1846 1.27009 5.91271 0.00825207 0.00302208 -0.039939 
20 1 41.8455 5.99843 18.4406 -0.0128812 -0.0365374 0.00670154 
10 1 42.8538 5.86212 17.3278 -0.00525484 0.00983783 -0.000445069 
19 1 43.1705 4.50102 16.9896 -0.0093735 -0.00503491 -0.0308664 
16 1 44.0453 4.35662 15.9154 0.000838654 0.0305757 0.0119902 
1 1 44.5714 5.55652 15.1998 -0.0330029 -0.0216207 -0.00836682 
31 2 43.0459 3.48396 17.7589 0.0681596 0.0234823 -0.00757153 
28 2 44.5849 3.44305 15.7995 0.0191185 0.0622024 0.109009 
7 1 45.8933 5.88308 14.5889 -0.0154076 -0.0101027 0.00288851 
8 1 47.2456 5.88251 15.0737 -0.00781734 0.00876364 0.019001 
27 2 47.3339 5.7614 16.153 0.0264369 0.188128 0.0957251 
23 1 40.3908 6.62667 18.2442 0.00919717 -0.0127401 0.0225537 
24 1 39.8785 9.00086 17.1079 -0.0077508 0.00772945 0.00668096 
36 2 39.4391 9.48912 16.3446 0.0216536 -0.0863066 -0.0743559 
12 1 40.6378 7.74796 17.1426 -0.0319055 0.00663581 0.0124082 
22 1 40.7711 10.0913 17.8437 0.0271052 0.0194996 0.0170507 
11 1 41.9114 10.2057 16.9338 -0.00197597 0.0412933 -0.00453172 
34 2 40.4542 11.183 18.23 -0.0106902 0.0186506 0.0444335 
515 1 59.8637 9.4563 30.8236 -0.040134 0.0161718 -0.00910465 
4 1 42.4394 6.52891 16.0347 -0.00743348 0.0155872 0.0206652 
6 1 41.7344 7.84129 16.216 -0.0128295 0.0380431 0.0255504 
2 1 43.633 6.78201 15.3022 0.0153749 -0.0115109 -0.00273389 
5 1 42.1255 9.25692 15.8919 -0.0118511 0.012957 -0.00608041 
3 1 44.0724 8.11702 14.9847 -0.0397099 0.00530997 0.00300677 
9 1 43.3785 9.44508 15.2352 -0.00335313 -6.64011e-05 0.00950561 
26 2 44.6548 10.8971 15.6321 0.0881674 -0.105359 -0.0221555 
18 1 43.6176 10.6843 15.7504 0.00050809 0.00290813 -0.00923849 
21 1 42.6116 11.2088 16.4267 0.0221751 0.00533359 0.00277736 
15 1 48.1269 6.76592 14.2207 0.00411152 0.010504 -0.0187134 
13 1 48.7218 7.4352 13.5392 0.00713535 -0.00217926 0.0137497 
25 2 49.5979 6.9859 13.1776 -0.0042558 0.0466145 -0.0351705 
248 2 38.7307 -8.42262 21.7211 0.0388766 -0.0642212 -0.0652661 
176 2 38.3589 -8.02127 20.9673 -0.0103177 0.0151488 0.0746174 
32 2 42.1033 5.83792 19.6042 -0.106885 -0.0687554 -0.023996 
35 2 39.5622 6.51496 19.0445 0.0876687 -0.0145412 0.0214855 
531 2 57.7547 10.8915 23.8385 -0.0463677 0.0293242 -0.0704515 
520 1 56.2615 11 25.5273 0.00550133 -0.0125091 -0.0320154 
524 1 55.418 10.4659 29.4465 -0.0252275 0.0261787 -0.00389834 
510 1 57.8007 9.78193 29.2647 -0.0135682 0.0101861 0.0299259 
514 1 56.1368 10.3273 28.0109 0.0178459 0.00551308 0.0145241 
509 1 59.1803 10.146 29.6416 0.0154284 -0.00292781 0.00770059 
508 1 57.5036 10.0002 27.8832 -0.00140242 0.000986405 -0.0054993 
505 1 59.5898 10.504 27.1746 -0.0168943 0.0180062 -0.014993 
506 1 58.2115 10.5306 26.9769 0.00687175 -0.00606159 0.00449806 
519 1 58.4909 10.7217 24.6528 0.0219339 0.00220781 0.0135457 
517 1 59.7281 10.6306 24.7091 -0.00628276 0.000596528 -0.00842013 
512 1 57.7604 10.7582 25.661 0.00302903 0.000761524 0.00281633 
523 1 55.6203 10.6184 26.7376 -0.000549708 -0.0106997 0.00302385 
516 1 57.0581 9.25628 30.4965 0.0195914 -0.0212427 0.0173318 
526 1 58.99 9.20634 32.0001 -0.000716155 0.005085 -0.0130392 
538 2 59.4163 10.2622 32.3601 -0.0461572 0.0070921 -0.0194116 
536 2 54.9437 10.0734 31.4623 -0.0319199 -0.0183299 0.0426868 
528 1 57.8759 8.70087 31.4814 0.0144154 -0.0051278 -0.000712741 
527 1 55.7928 10.0424 30.6631 -0.0135339 -0.00537651 -0.0142644 
170 2 57.0734 1.62457 18.7455 -0.0336544 0.0129156 0.0416452 
64 2 56.8074 0.613605 18.4395 -0.125214 0.143259 -0.0601724 
535 2 55.4598 11.2248 24.8538 -0.0310998 -0.0282608 -0.0231833 
507 1 59.9705 10.2559 28.5548 0.035263 0.0108293 -0.0228202 
30 2 42.3541 11.8892 17.2259 0.0696819 0.0456851 0.0104442 
287 2 49.5773 28.1322 1.2528 -0.0227416 -0.0439546 0.106764 
33 2 49.1738 28.4296 0.829004 -0.0795966 0.0741667 -0.097489 
540 2 38.4748 12.283 -0.491487 0.0588789 0.0386584 -0.034516 
537 2 38.5075 13.0644 -0.167974 0.00539643 -0.0339436 -0.00448971 
52 1 43.6245 21.3259 17.462 -0.0208927 0.00852277 0.0104786 
59 1 47.0119 23.326 17.5913 -0.00839455 -0.0211542 -0.00708336 
55 1 44.628 22.5294 17.1534 0.00655115 -0.00119625 0.00990135 
67 2 44.5057 22.8775 16.0867 0.0557606 -0.0505846 0.0733279 
63 2 43.0294 20.5826 16.7732 -0.0536425 -0.0986777 0.00300513 
72 2 48.2962 24.5433 18.6392 0.0469969 -0.0703309 0.00313672 
46 1 45.8262 22.6103 18.0879 -0.0157889 0.00464873 -0.0127036 
51 1 43.3637 21.338 18.9279 0.00734384 0.00282419 -0.00318629 
40 1 46.1015 22.2678 19.5394 -0.0221042 -0.00317225 -0.00785655 
44 1 43.6604 21.9901 20.2224 0.00483315 -0.0103071 -0.0179142 
42 1 47.2598 21.9234 20.1666 0.00799111 -0.00816057 -0.00135272 
38 1 44.9611 22.5296 20.383 -0.0263149 0.00824998 0.0120925 
49 1 43.4327 21.2096 21.5405 0.0140635 0.0074735 -0.0122333 
41 1 47.2101 21.7245 21.5668 0.0134323 0.00824745 -0.0246126 
43 1 43.9003 22.0395 22.6415 -0.00434883 -0.00955165 0.00973401 
37 1 45.0144 22.6122 21.7847 0.0182971 0.00848322 0.0434105 
39 1 46.2237 22.5872 22.4297 -0.00842629 0.00970242 0.000333584 
50 1 43.219 22.135 23.8445 -0.0187923 -0.0143068 0.0054516 
45 1 46.4853 22.7075 23.7439 0.0217148 0.00893937 0.003547 
57 1 47.9476 22.5257 23.8845 0.0117079 0.0121521 -1.14832e-05 
56 1 48.2286 23.4515 18.4837 0.0460284 0.00154615 0.00657611 
48 1 48.3851 22.6753 19.7372 -0.0134885 0.00991482 0.0163393 
60 1 49.5073 21.8303 20.2613 -0.00375529 0.0110062 0.00656058 
54 1 49.6865 21.8557 21.7542 0.00578615 -0.0116096 0.0023165 
58 1 48.2657 21.9687 22.25 -0.0176114 -0.00458201 0.00568711 
69 2 50.6761 21.5294 22.0863 -0.103209 0.0285218 0.040118 
70 2 50.5302 21.7409 19.8542 -0.00708409 0.0427583 -0.0191894 
352 2 38.7745 27.2536 22.8754 -0.00768211 0.0744769 -0.166598 
65 2 46.0522 23.0584 24.5776 -0.0517688 -0.0139467 0.0247021 
62 2 41.7856 21.7792 25.4276 -0.0521953 0.0419441 -0.045699 
53 1 42.5126 22.1935 25.054 0.00243824 0.00689409 -0.0126303 
61 2 42.6001 23.3175 25.4358 -0.00701499 -0.0602365 -0.0067163 
47 1 48.6339 21.9563 24.7665 0.0120282 -0.00596288 -0.00274908 
66 2 49.2682 21.5607 25.445 -0.0225513 -0.0140494 0.00127047 
574 2 39.5741 26.9586 22.5727 0.0179351 -0.125891 -0.0019505 
275 1 81.8713 -11.1285 5.2973 -0.0140041 -0.0163191 -0.0146825 
272 1 82.8464 -11.3895 5.87219 0.0021992 0.0145124 -0.0109552 
288 2 79.2396 -11.0534 4.28726 -0.00617145 0.0721635 -0.0156427 
500 2 76.9212 -11.9468 11.7028 -0.0996611 0.0415831 0.0538549 
422 2 63.6235 7.64734 -10.9744 0.0771787 -0.0106077 0.0288129 
14 1 63.6707 8.06908 -11.9411 0.00770579 -0.0470171 0.0105677 
488 1 78.0493 -11.2405 13.7054 0.0147151 0.0198649 -0.0239325 
491 1 77.8383 -11.9077 12.5091 0.0183874 0.00407338 0.00660286 
501 2 78.1859 -10.0765 13.855 0.0298616 -0.0017816 0.0949402 
80 1 81.2384 -6.13505 14.8201 0.0280416 -0.0144734 -0.00969487 
85 1 80.8928 -8.31442 13.3498 -0.00124865 0.00404335 0.015187 
99 2 80.3551 -8.11154 12.3578 -0.105603 -0.015888 -0.0150249 
494 2 82.3908 -10.0436 14.3108 0.048445 0.0177685 0.0705402 
475 1 81.6517 -9.44935 13.9486 -0.0224787 0.0074323 -0.00470199 
482 1 80.3351 -10.0775 14.5127 0.00686022 -0.0226316 0.00777932 
529 2 60.6815 10.7284 24.1198 0.048604 0.0678974 0.0080248 
485 1 80.1817 -11.3879 14.9148 0.00714431 -0.0128875 0.0200674 
108 2 79.6978 -9.24653 14.6897 0.0792603 0.0145132 0.00539869 
87 1 81.1949 -6.9468 14.0234 0.0234453 0.018518 0.0127795 
413 1 63.4595 6.81422 33.6492 -0.00684778 0.0078877 0.0172036 
100 2 81.1159 -6.41467 15.9219 -0.0100263 -0.00767138 0.00497738 
144 2 78.1836 3.64727 15.884 0.0844407 0.0576796 -0.0396333 
394 2 77.9182 2.5715 15.4164 -0.0179868 -0.0395118 0.0334294 
415 1 67.738 9.37758 30.1583 0.00540188 0.00440926 -0.00494708 
397 1 64.9738 7.256 31.5984 -0.000514164 -0.0064127 0.00638079 
398 1 66.5017 8.61353 30.4116 0.0311721 -0.00748533 -0.0212297 
427 2 63.8073 7.72821 28.3438 0.0543671 0.0229267 0.0710683 
533 2 63.3069 10.6184 29.1729 0.0108765 0.018467 0.0174512 
513 1 62.6397 10.6726 28.4235 -0.0297227 -0.011686 0.0174522 
530 2 63.877 12.0909 27.0092 0.0410479 0.0194388 -0.0183974 
521 1 62.9349 11.2746 27.1652 0.0288659 0.00958335 -0.0075957 
518 1 61.7565 10.9916 26.3208 0.0078784 -0.0104265 -0.00786072 
522 1 61.4459 9.96914 28.9553 0.0046635 0.0280732 -0.00668304 
412 1 66.4825 8.8615 27.963 0.0326392 0.0193031 -0.0054681 
411 1 64.5262 7.98067 29.1534 0.0278877 0.0228134 -0.0135585 
404 1 65.8575 8.07129 29.0871 0.00683298 0.0390724 -0.0169043 
511 1 60.462 10.542 26.0492 -0.00636801 0.0125119 0.0270068 
402 1 68.1783 11.6231 30.2962 0.00891798 0.0136269 -0.0070421 
419 1 69.052 11.4031 27.2354 -0.000563762 0.0218756 -0.0190599 
498 2 81.1589 -11.9691 14.5058 -0.098783 -0.0961201 -0.0364908 
416 1 68.4351 10.3836 27.8185 -0.019344 -0.0265918 -0.0157851 
431 2 69.9879 11.4186 26.8364 0.0944 -0.010215 -0.0722232 
406 1 67.7318 9.47916 28.5862 0.0062763 0.00952046 -0.0236922 
424 2 65.5332 8.97984 27.2547 -0.0121107 -0.00938672 0.000256813 
17 1 66.2523 7.85253 31.443 -0.00576383 0.0134626 -0.00112877 
423 2 63.478 6.29238 30.4598 0.0538729 0.0167267 0.0283129 
409 1 63.9556 7.46005 30.4502 0.0216872 0.000845598 0.0235878 
477 1 78.8425 -11.9261 14.8488 0.00790722 0.00808551 -0.00156028 
502 2 71.6884 -11.168 12.1947 -0.0609453 0.0577966 0.0395971 
400 1 68.3013 10.499 30.8878 0.0345283 -0.00768689 -0.00621462 
410 1 63.9175 7.96467 34.7442 0.0156252 0.0101382 0.0154841 
29 2 63.0528 5.84887 33.9079 0.0317325 -0.029159 -0.0407787 
426 2 67.5909 10.2213 31.7563 -0.0531077 -0.124166 0.0929981 
534 2 61.8618 9.70986 31.1657 0.00380757 -0.0285209 0.0138335 
525 1 61.185 9.62651 30.3916 0.0143355 0.00399264 0.00448958 
403 1 64.229 7.08397 32.6735 0.0189302 0.000738872 0.00302982 
425 2 66.8459 7.42977 32.3299 -0.0371899 0.0459735 -0.0493311 
432 2 71.8636 24.6087 -11.1821 0.0499217 0.0067329 0.00698926 
387 2 73.0435 23.6881 4.40568 0.0922853 0.113912 -0.0936026 
373 1 73.9894 23.1478 4.60513 -0.00951467 -0.0159138 0.012856 
375 1 75.2802 23.6214 4.08643 0.0104809 -0.000617357 -0.0252499 
368 1 76.2219 23.5977 5.22433 -0.0189961 -0.00594482 -0.00282243 
376 1 77.3908 24.099 4.70131 0.00772259 -0.00696039 -0.0322861 
391 2 77.6284 24.2368 3.66594 -0.0367698 -0.0418221 0.0239188 
388 2 75.6372 23.4917 3.16301 -0.0478453 -0.0112852 -0.0194109 
269 1 81.5672 30.0094 4.0375 -0.0100825 0.0131208 0.0179023 
266 1 82.8392 30.045 4.72647 0.00109835 0.000426257 0.00828132 
281 2 83.5237 29.3895 4.99588 -0.0552288 -0.014554 -0.0110887 
285 2 80.0816 30.2233 1.8124 0.061692 -0.0933355 -0.0698776 
270 1 80.0814 31.3326 2.48725 -0.021517 0.0128976 0.00820061 
274 1 79.0869 34.8066 3.40628 -0.0177037 0.042167 0.0255843 
286 2 78.0173 35.3066 3.11151 0.131656 -0.054074 0.0725689 
257 1 80.9835 33.8322 4.43052 -0.0146405 -0.0125295 0.00284433 
263 1 80.0555 33.681 3.31542 -0.0171952 -0.0114661 0.00413956 
273 1 79.6427 32.6711 2.22188 -0.0142603 0.00619226 -0.0326812 
255 1 81.5983 32.5151 4.31787 -0.00501135 0.0182756 -0.00686106 
258 1 81.4593 34.7657 5.37317 0.00417863 -0.0193008 0.00360876 
575 2 80.0061 32.66 1.19211 0.0187134 -0.0335235 0.0151573 
261 1 81.1234 31.3882 3.61272 -0.0340395 0.007802 -0.0120232 
396 2 77.7302 25.66 12.0148 -0.00554599 -0.0582817 0.0661581 
256 1 82.6545 34.4604 6.02332 0.00859657 -0.0291396 -0.0178101 
253 1 82.0945 32.1821 5.64461 0.00461728 -0.00907288 -0.0323313 
386 2 71.5904 21.7879 6.82078 -0.0329204 -0.0705504 -0.0272257 
389 2 70.8788 23.4601 7.96467 0.0536444 -0.0553609 0.0819993 
377 1 71.8634 23.0023 8.11417 -0.0207418 0.0110726 0.0111068 
362 1 75.9161 23.8607 6.50936 -0.0274949 0.00494085 0.00259221 
367 1 73.3578 22.9551 6.02969 0.00416384 0.00144059 -0.000334255 
374 1 72.1811 22.6355 6.69321 -0.0245707 0.0178437 -0.0122079 
361 1 74.6382 23.4269 6.80422 -0.0160533 0.02078 -0.0115807 
363 1 74.411 23.6245 8.20384 0.0161924 -0.0227961 -0.0154777 
369 1 73.0135 23.3696 8.86979 -0.00589177 -0.00585047 0.00840136 
395 2 80.0883 24.2194 7.40425 -0.0318663 0.0961887 -0.0339574 
495 2 72.6289 22.1052 10.5311 0.0890955 0.0424389 0.0288997 
366 1 76.7165 24.3273 8.85533 0.000846045 -0.0229608 0.0116102 
364 1 76.9398 24.3836 7.40074 0.0108786 -0.00725732 -0.00217377 
384 1 77.2086 25.5025 11.059 0.0403648 0.0110138 -0.01403 
381 1 73.714 23.7484 11.2414 0.0170865 -0.0143313 0.00791625 
365 1 75.4499 24.0367 9.36263 -0.0327828 -8.89578e-05 0.00237059 
371 1 74.9275 24.2904 10.7592 0.0163386 -0.011618 -0.00382482 
372 1 77.7299 25.1745 9.82791 0.0127025 0.0331645 -0.0194458 
378 1 72.6843 23.167 10.3032 0.0206287 -0.0035818 -0.00906746 
262 1 83.6914 35.4816 6.07699 -0.0070151 0.0164606 -0.00575422 
382 1 75.7422 25.3705 11.388 -0.00463336 -0.0037524 -0.00174921 
265 1 83.7717 31.1442 7.02902 0.0112606 -0.00936672 -0.0199005 
379 1 78.3537 23.5684 5.74681 -0.0132468 0.0235042 -0.00805198 
370 1 78.3205 23.8112 7.15494 0.0211 0.000182881 0.0101566 
380 1 79.2997 24.0477 8.21763 0.0121909 -0.0203643 0.0177061 
383 1 79.0763 24.8564 9.50788 -0.0327153 0.00935802 0.0112192 
392 2 80.0929 25.402 9.68822 0.061818 0.0632251 0.134852 
314 2 62.3629 26.6035 -2.82955 0.0676493 0.027618 0.0951421 
489 1 72.2617 34.7493 11.9273 0.0178816 0.0059144 0.0197741 
264 1 80.9736 35.9799 4.67644 0.00572687 0.000782181 -0.00111391 
492 1 72.919 33.5735 11.604 -0.00641599 -0.0232427 -0.0126435 
259 1 82.5359 30.8721 6.14206 -0.00687639 0.00604901 -0.00541122 