ITEM: TIMESTEP
400000
ITEM: NUMBER OF ATOMS
576
ITEM: BOX BOUNDS pp pp pp
-1.2000000000000000e+01 8.4000000000000000e+01
-1.2000000000000000e+01 3.6000000000000000e+01
-1.2000000000000000e+01 3.6000000000000000e+01
ITEM: ATOMS id type x y z vx vy vz 
349 2 -8.29436 -8.95986 -2.19304 0.0446195 0.00932643 0.0742462 
337 1 -7.43997 -8.58835 -2.17194 -0.00504009 0.00825822 0.00797291 
338 1 -8.49644 -6.99161 -0.386699 -0.00502402 0.0208493 0.00866049 
331 1 -7.47434 -7.44135 -1.18917 -0.00175229 -0.0333107 -0.00171611 
351 2 -6.25122 -9.07549 -4.02146 0.0271006 -0.0486054 -0.0708745 
339 1 -6.24675 -8.65423 -2.87522 -0.0272138 -0.0270614 -0.00978067 
350 2 -9.29489 -7.62339 -0.0634669 0.0449119 -0.0647551 -0.00847801 
325 1 -6.18443 -6.67313 -0.701925 -0.000997549 -0.0341448 -0.000653861 
332 1 -5.12849 -8.33781 -2.01073 0.010958 0.010861 -0.00927567 
352 2 -3.96093 -10.27 -2.70604 -0.0278308 -0.00733403 0.0225683 
340 1 -3.8786 -9.17925 -2.1756 -0.0364489 0.000810621 0.0313498 
355 2 -1.61388 -9.14481 -2.36533 -0.12639 0.0418111 -0.0233616 
343 1 -2.49009 -8.65689 -1.83119 0.000593858 0.00611824 -0.0224553 
326 1 -5.00263 -7.4835 -0.692204 0.0157328 -0.0107949 -0.00378831 
334 1 -2.51314 -7.85187 -0.615726 -0.0119487 -0.010012 -0.00514585 
328 1 -3.72105 -7.05262 -0.191253 0.0274788 0.0127023 -0.0152434 
344 1 -1.06764 -7.25289 -0.0523945 -0.0429603 -0.00718864 0.0057322 
333 1 -7.33153 -4.6547 -0.173629 -0.00823957 -0.0338659 -0.00570247 
216 2 -7.06121 -2.90188 -0.26031 -0.00309308 -0.0237742 0.0181313 
327 1 -5.88495 -5.24417 -0.461484 0.0138194 -0.0139604 -0.000345556 
330 1 -3.22169 -5.76315 -0.105553 -0.000469397 -0.00728131 0.00734098 
356 2 -0.200715 -7.92978 0.208557 0.0842823 -0.0277261 0.121562 
347 1 -1.01251 -6.01815 0.405146 -0.00525375 -0.0027373 -0.006651 
353 2 -9.10706 -5.48379 0.826828 0.0216917 0.125172 -0.0948269 
341 1 -8.0796 -5.7235 0.4093 0.00149824 -0.000937839 -0.0235403 
354 2 -8.14655 -3.63222 1.17197 -0.0510053 -0.00232389 0.0255664 
342 1 -7.16594 -3.42999 0.760592 -0.00370516 0.0173833 -0.00741786 
329 1 -4.57537 -5.11858 0.0646849 -0.00723769 -0.00742819 -0.0135381 
335 1 -4.35687 -3.89915 0.887169 -0.0114129 -0.00612031 -0.00098781 
345 1 -5.72534 -3.57255 1.22002 -0.00159409 -0.0160028 0.0109257 
346 1 -3.14467 -3.30636 1.64994 -0.0107733 0.00129645 0.000905338 
358 2 -2.84696 -3.014 2.6396 0.000508853 -0.00274754 0.0596027 
336 1 -2.13523 -4.8712 0.237492 -0.0151237 -0.00593085 -0.0203309 
348 1 -1.90433 -3.77913 0.901904 -0.00871442 0.0115574 0.00137523 
360 2 -1.05378 -3.4643 1.4258 0.0944463 0.021566 0.0606133 
359 2 -0.264881 -5.6073 1.30514 0.0229865 -0.0872719 -0.00698883 
511 1 -1.89746 5.07823 5.96194 0.000242992 0.0050947 -0.0135468 
530 2 -3.25222 3.77327 4.62747 -0.0407109 0.0509076 0.0229423 
518 1 -2.85198 4.83084 4.81096 -0.00253284 -3.88194e-05 0.0123463 
533 2 -4.85934 5.35427 4.29949 -0.0955579 -0.030796 0.0345565 
521 1 -3.82717 5.82376 4.65246 0.0239463 0.00720434 0.0125754 
525 1 -4.09711 9.76001 4.47741 -0.00391261 -0.0334031 -0.00172514 
534 2 -4.25425 10.9047 3.81656 0.0151732 0.0132812 0.108565 
522 1 -3.97371 8.49919 4.0944 -0.00227047 0.0178932 0.019803 
513 1 -3.5897 7.31262 4.85838 0.00886718 -0.00672056 -0.0213558 
515 1 -3.33014 10.1759 5.63608 0.00359293 -0.00585156 0.00635133 
465 2 -4.67634 -11.0206 7.91198 0.0102357 0.0377272 -0.0323211 
466 2 -4.41426 -10.9187 10.4951 0.0579828 0.00821535 -0.0288473 
454 1 -5.15447 -11.9347 10.3649 -0.00610767 -0.00618643 0.0258641 
529 2 -1.22233 3.05803 6.51644 0.105394 0.0382884 -0.00227254 
517 1 -0.991091 4.32182 6.6264 -0.010143 0.0144566 0.00718245 
519 1 -0.0242273 4.66405 7.61404 0.0481548 0.0047908 0.0218498 
512 1 -0.329311 5.81248 8.2282 -0.0143487 0.0225479 0.0027397 
532 2 0.772007 5.1101 10.421 0.0321929 -0.0120902 0.022779 
531 2 0.612945 3.86412 7.96694 -0.0113424 -0.0580816 0.0210884 
520 1 0.40902 5.69868 9.66681 -0.0103147 -0.000881754 0.00771486 
507 1 -2.80858 7.60151 6.06459 0.00203925 -0.0187499 0.0170211 
505 1 -2.0087 6.53001 6.45289 0.0133083 0.011374 -0.030942 
539 2 -1.62095 10.9149 10.3272 0.0744727 0.069497 0.0690712 
509 1 -2.65138 9.06861 6.26473 0.00380026 -0.0209194 -0.0240157 
506 1 -1.28905 6.75357 7.65717 0.00178344 -0.0084863 0.00600055 
536 2 -1.26116 8.75387 11.4751 0.104461 -0.00945422 -0.0748914 
514 1 -0.995625 7.72602 9.64881 -0.00639293 0.00364792 0.0184662 
526 1 -2.48204 11.2667 6.13048 0.00294223 -0.016567 0.00822416 
528 1 -1.78732 11.1196 7.26541 0.0107223 -0.00179516 -0.00856669 
524 1 -1.44951 8.83414 10.4465 0.0229842 0.0215971 0.017143 
508 1 -1.55441 7.908 8.22136 0.00365237 0.0103764 0.00388801 
527 1 -1.33203 10.0769 9.81176 0.00814649 0.010224 -0.00859215 
510 1 -2.24915 9.05264 7.59061 0.0118038 0.00529958 -0.0266223 
516 1 -1.71516 10.109 8.21417 0.0298385 0.00688281 -0.00475676 
535 2 1.29906 7.46588 9.96974 -0.0379643 0.0613027 0.0517904 
523 1 0.298877 7.09402 9.95146 0.000778607 0.00768286 0.0143438 
537 2 5.82929 10.5006 11.4235 -0.106538 -0.0713511 -0.117634 
540 2 6.12088 10.179 10.7633 0.0424346 -0.102653 -0.0378209 
468 2 -5.52604 -11.5106 12.1643 -0.0137016 0.0540017 -0.040452 
123 1 -0.589354 21.6608 -7.86614 -0.0203471 0.00214621 -0.0170847 
136 2 -2.64514 20.0263 -6.16165 -0.0279142 0.0501145 0.0114915 
124 1 -1.73798 19.5619 -6.52007 0.0258066 -0.0168916 0.00090419 
116 1 -0.616071 20.1485 -7.17476 -0.00700534 0.014703 0.0175435 
121 1 0.619839 22.1585 -8.24495 0.0131518 0.0074984 0.0146111 
133 2 1.20065 23.1289 -8.59045 0.0268284 0.0323043 0.0509935 
110 1 0.477827 19.3301 -7.29706 -0.00111424 -0.0018933 -0.0110284 
134 2 2.71035 22.7286 -9.32079 0.0406957 -0.0282293 0.0808779 
115 1 1.66444 21.1712 -8.3606 0.0129243 0.00599672 0.017586 
122 1 2.69365 21.6113 -9.15736 0.0144593 0.0294239 0.00420979 
109 1 1.67155 19.9376 -7.84284 -0.00738054 -0.0168123 0.00625453 
111 1 2.94076 19.6074 -7.40011 -0.0233072 -0.0140755 0.0125232 
117 1 3.88973 19.7724 -8.49615 0.00204877 -0.00149137 0.0101216 
129 1 5.49993 19.1841 -6.7475 -0.0142378 -0.0152978 0.00780889 
125 1 3.98295 20.9607 -9.26486 -0.0113044 -0.00460668 0.0179428 
126 1 5.09768 19.4314 -8.03542 0.0159493 0.0107658 0.000955822 
137 2 4.73499 21.4871 -9.77556 0.0526087 0.0107511 -0.0511755 
113 1 3.07707 18.6747 -6.24377 -0.0137579 0.00536622 0.00431005 
138 2 5.98105 20.1229 -8.30649 0.0639237 -0.0165112 0.0815285 
112 1 0.612511 18.3739 -6.12957 0.0059393 -0.00461873 0.0102639 
141 2 6.6175 19.3224 -6.61766 -0.0238994 -0.0595683 -0.0697375 
140 2 -0.607865 17.465 -3.15113 0.0581499 0.0666592 0.147674 
128 1 0.0533067 17.4494 -3.91587 0.0288065 -0.0083134 -0.00128824 
143 2 1.27285 16.021 -2.57387 -0.020798 0.030283 -0.0244138 
131 1 1.1459 16.9333 -3.57236 0.0398281 0.0377902 -0.0179822 
142 2 5.4289 17.6279 -4.3257 -0.0660397 -0.0227055 0.00273472 
144 2 3.66661 16.1624 -3.61967 -0.0247613 -0.0442166 0.001646 
114 1 1.94106 17.9647 -5.73074 -0.00254615 -0.00314404 -0.0489299 
120 1 1.98362 17.2158 -4.72798 -0.0066621 -0.00859771 -0.00878274 
132 1 3.32573 16.7016 -4.52428 -0.00732 -0.00115036 0.00415068 
130 1 4.43124 17.4806 -4.76564 0.00895305 -0.0301312 -0.0166056 
139 2 -2.24985 18.3145 -4.57813 -0.0576834 0.0507534 0.0554937 
127 1 -1.59448 18.5133 -5.3227 -0.0056446 0.00489493 -0.00534146 
118 1 -0.122593 18.3343 -5.03819 0.00377062 -0.0131126 -0.00944898 
119 1 4.42054 18.6345 -5.83182 0.027436 -0.00784217 -0.00942578 
538 2 -2.24098 12.3533 5.6851 -0.0247666 0.0285868 -0.0476409 
458 2 -7.24156 31.4903 5.18259 -0.0819191 -0.0260325 0.0760477 
461 2 -7.45169 33.6506 5.53828 0.0436562 0.0737384 -0.0292794 
462 2 -5.23369 35.6527 5.83403 -0.047647 -0.0632809 -0.000531455 
71 2 5.8277 14.8334 11.5797 -0.00497493 0.0638537 -0.131902 
504 2 6.24228 14.8875 11.2474 -0.141556 -0.0373073 0.0882239 
457 2 -5.41963 28.9722 6.3011 -0.110463 -0.0379969 0.101203 
459 2 -4.68955 28.1294 8.49441 -0.0816905 0.00880948 -0.0303649 
447 1 -5.22413 29.166 8.54282 -0.0212137 -0.00860222 -0.000226731 
445 1 -5.57687 29.7646 7.16792 -0.0115508 0.00191911 -0.0302102 
449 1 -7.33928 33.1664 6.46932 0.00995716 -0.0142304 0.00861923 
435 1 -6.14551 33.3023 8.27577 -0.00169078 -0.00203714 0.00279064 
446 1 -7.05053 31.6765 6.2208 0.0181753 -0.00805541 -0.0147138 
433 1 -6.13673 31.9372 8.44129 -0.0139517 -0.0198177 -0.0200014 
439 1 -6.17778 30.8758 7.07814 0.0247546 -0.0257059 0.00257044 
441 1 -6.24012 34.052 7.07115 -0.0080059 -0.00950786 0.00774767 
444 1 -6.2226 34.4772 11.8258 0.00125266 -0.00880831 0.00502447 
450 1 -5.55336 35.3491 6.79084 0.00656534 0.00379523 -0.0137932 
460 2 -2.83927 30.9944 11.5591 -0.0747434 0.00447364 -0.00118701 
451 1 -2.5208 30.6096 10.4991 0.0106658 0.0140565 0.0191128 
463 2 -1.48533 30.8397 10.1571 -0.0909221 -0.0266129 -0.0327665 
436 1 -5.84815 31.9471 10.9283 0.00475081 0.00292641 -0.024563 
437 1 -5.30354 33.8976 9.61132 0.00766554 -0.00380673 0.00180582 
448 1 -3.5989 30.3318 9.95454 -0.000965221 -0.0116557 -0.0282524 
438 1 -5.83266 33.4067 10.8626 -0.0103398 -0.00906979 -0.0113139 
440 1 -5.16167 30.1439 9.57438 0.0156919 0.0102312 0.0125576 
434 1 -5.9623 31.287 9.70062 -0.00517614 -0.0018777 0.0185241 
443 1 -5.33735 35.2733 9.10757 -0.0197111 0.00847155 -0.0193308 
453 1 -4.81372 35.8493 7.77981 0.00758977 -0.0128145 -0.00916674 
456 1 -5.68314 35.7758 11.4204 0.00299912 0.00986086 -0.0205022 
421 2 -0.971838 22.0764 13.3326 0.0594861 -0.0926144 -0.118973 
452 1 -6.77126 32.4602 12.7674 0.0174624 -0.0204143 -0.0246055 
455 1 -6.87798 33.7811 12.8873 -0.00408865 0.0216612 -0.00415891 
442 1 -6.44375 31.252 12.2109 0.0319458 -0.00321804 0.000403101 
464 2 -6.7573 30.0896 12.244 -0.0372095 -0.0406386 -0.00503397 
467 2 -7.12147 33.8285 14.0688 -0.111258 0.100015 -0.0319471 
177 2 -11.4193 16.5402 32.1208 -0.0450192 -0.0398504 -0.0141068 
210 2 20.3353 6.71219 0.724619 0.059835 -0.0124173 0.0752739 
473 1 22.5983 4.01939 9.45901 -0.00262253 -0.00899342 0.00199773 
472 1 23.8343 4.52727 9.02811 0.0182568 0.0207208 -0.00794354 
474 1 21.4819 3.32499 9.74258 0.00307306 0.0144616 -0.039408 
480 1 21.7798 2.61004 11.2167 -0.010841 0.00223736 -0.0170081 
503 2 24.0218 3.34385 7.50191 0.00701487 -0.0539991 -0.0288138 
478 1 24.5762 4.06919 7.80925 -0.0134963 0.00998389 0.0162947 
499 2 26.4157 2.74916 7.10093 0.00844437 -0.0367691 0.01893 
487 1 26.0342 3.63869 7.87781 0.0106628 0.00864415 0.00734429 
476 1 26.2678 4.80626 9.97641 0.0489188 0.0159334 0.00884542 
470 1 24.6327 5.02673 10.2311 0.00928836 -0.000283436 0.00612464 
483 1 26.9307 5.83644 10.6375 0.00830116 -0.00451844 -0.00326103 
469 1 24.1614 5.8405 11.3043 -0.0158791 -0.00647439 0.00161894 
496 2 27.6446 3.57582 8.75525 0.00119325 0.0269615 -0.0276785 
484 1 26.9298 4.38912 8.77375 -0.00949909 0.0223653 0.0061148 
491 1 20.324 7.1 11.3511 0.0132202 0.0131758 0.0119986 
498 2 19.2688 6.68609 10.695 0.028993 -0.0652984 0.0895104 
500 2 20.4638 8.18587 11.2641 -0.0807113 0.0269947 0.101 
501 2 22.0568 6.31315 9.78102 -0.106624 0.0261208 -0.0318976 
479 1 21.8126 6.68991 10.8697 0.0224541 0.0132648 0.00408225 
471 1 22.7867 6.3547 11.9222 -0.00269344 -0.0240562 -0.0377305 
481 1 26.5521 6.4668 11.8933 0.0011103 0.0183014 -0.00919618 
179 2 16.8157 1.74708 17.519 0.106703 -0.0532368 -0.0328531 
490 1 22.5723 2.74844 12.2494 0.00117167 -0.0134399 -0.00564954 
489 1 23.3615 4.14339 14.1176 -0.00618351 0.0254085 0.0156841 
492 1 23.4409 3.08801 13.3653 -0.00275725 0.00934593 -0.0176955 
486 1 22.8473 5.50261 14.1701 -0.00306577 0.00934139 -0.00671848 
477 1 21.7522 5.87366 13.198 -0.00508655 -0.00781469 -0.0146816 
502 2 24.0401 2.33487 13.8053 0.0608538 0.0116529 0.00107711 
488 1 20.6443 6.56731 12.7505 -0.00742793 0.00976235 0.0158159 
105 2 20.3875 8.83148 13.5546 0.0162099 0.0224173 -0.03986 
497 2 22.9363 7.44389 12.2898 -0.0641492 0.0691934 -0.115961 
493 2 27.3122 6.74372 12.7733 -0.0638137 -0.0166527 -0.0932633 
494 2 24.5285 7.10373 15.1979 0.0691661 -0.0389882 0.000747512 
475 1 25.2232 6.29085 12.0955 -0.00344268 0.00191522 0.00808958 
482 1 25.252 6.9567 13.5564 -0.00246968 0.0128216 -0.00699737 
485 1 24.1019 6.42291 14.2309 0.00505706 -0.016263 0.00547622 
108 2 26.3201 7.02403 13.8905 -0.139906 0.0375478 0.0130962 
563 1 27.73 -11.1045 21.0765 -0.0245703 0.00093725 -0.00931706 
572 2 25.7701 -10.3951 22.2785 0.0422916 -0.126644 0.0814205 
575 2 28.7062 -10.4569 21.0874 -0.0322212 0.00227854 0.0160367 
560 1 26.2429 -10.9704 21.3735 0.0183191 -0.0222007 0.00376194 
550 1 25.5316 -11.4688 20.3175 0.00707894 0.00193919 0.00196258 
576 2 29.8581 -11.972 22.1256 0.0270589 0.0491735 0.0162674 
33 2 22.4931 4.5561 20.1359 -0.0359053 -0.0370989 0.0800174 
21 1 23.4927 5.27674 20.4879 -0.0249325 0.0219626 -0.000340946 
29 2 26.8874 4.55012 18.7881 0.0306022 0.0995069 0.0315198 
17 1 26.8687 5.59145 19.5821 -0.0156402 -0.00494325 0.000474091 
18 1 24.5786 5.06611 19.9129 -0.0201042 -0.00614535 0.00570637 
30 2 24.6547 4.06813 19.365 -0.0416003 0.119049 0.0298214 
9 1 25.8816 5.70112 20.5242 -0.0119866 0.00805372 0.00831057 
26 2 28.7986 5.66298 18.736 0.0145635 -0.0562229 0.0411282 
34 2 21.042 7.04517 21.6169 0.0174291 0.00874626 0.0294245 
36 2 21.4032 8.4098 23.9462 0.051139 -0.0503387 -0.0069644 
22 1 22.1999 7.10867 22.1341 0.0194923 -0.0292397 -0.0248137 
24 1 22.2608 8.13666 23.1958 -0.0215959 0.0150886 0.0234698 
11 1 23.2473 6.4419 21.47 0.00501546 -0.0274839 0.00296367 
12 1 23.6397 8.47664 23.7019 0.00830842 0.0264174 0.0109981 
14 1 28.0376 6.32467 19.3632 -0.0419418 0.0238658 0.0112877 
16 1 28.0431 10.3609 23.5682 0.000380766 -0.0421691 0.0154875 
2 1 27.3407 8.07202 22.8243 -0.00273589 0.00304674 0.0218304 
8 1 28.3934 9.14777 22.7138 -0.0126388 -0.00897327 0.0380854 
4 1 26.1947 8.37385 23.5268 0.0136138 -0.0153938 0.020412 
1 1 27.3272 7.20634 21.4529 -0.0205992 -0.010172 0.00821336 
6 1 24.908 8.02676 22.9345 0.00800838 -0.0132629 -0.000832691 
5 1 24.6251 6.86308 21.9267 0.0250759 -0.00610641 -0.0153399 
3 1 25.9453 6.71014 21.3984 -0.00993188 -0.0134688 0.013887 
7 1 28.2337 7.42467 20.5452 -0.00644948 0.0169037 0.00392401 
13 1 29.3812 8.39107 20.3988 -0.00624512 -0.00197936 -0.0092016 
15 1 29.3407 9.26218 21.458 0.00450486 -0.0153649 -0.000862304 
28 2 28.8074 11.0083 23.3005 -0.0179702 -0.0588786 -0.101701 
27 2 30.3859 9.77303 21.3765 0.0409581 0.110483 0.0181831 
25 2 30.0052 8.29096 19.5595 0.0430443 -0.0317765 0.0421684 
35 2 22.9755 9.77945 25.0868 0.0189846 -0.0339811 0.128385 
23 1 23.9099 9.44942 24.9482 -0.0153639 0.0236021 0.00725542 
10 1 26.6551 9.22849 24.8022 -0.0394322 0.000309355 -0.0124274 
19 1 27.5493 10.2736 25.0453 0.00975632 0.0160701 -0.00696165 
20 1 25.2808 9.31597 25.7022 0.00034719 -0.0221396 0.0023847 
32 2 26.0438 9.7928 26.3378 -0.067002 -0.0228302 -0.0130527 
155 1 29.2958 10.6968 28.8364 -0.00819244 0.0104672 -0.013856 
31 2 27.4839 11.0697 25.8282 0.0366021 -0.0635659 0.029999 
149 1 28.7698 11.9413 28.2493 -0.00426494 -0.0178001 -0.017345 
165 1 30.185 9.90448 27.82 0.0145866 -0.00516633 -0.0160903 
174 2 30.8234 8.89734 28.0729 -0.0183915 -0.014654 0.0427751 
162 1 30.2243 10.5747 26.8122 0.00822483 -0.0325804 -0.0116068 
173 2 30.3063 11.5061 24.284 -0.05532 0.0236233 -0.0490635 
168 1 27.8475 10.6892 30.8482 0.00314985 -6.02386e-05 -0.00520475 
180 2 28.1221 10.4939 31.9599 0.0177724 -0.0213401 -2.06142e-05 
166 1 29.083 10.3759 30.1649 0.0169946 -0.00902496 0.0146863 
178 2 29.7817 9.61223 30.691 0.0349643 0.0250255 0.0277077 
156 1 27.5157 11.8464 30.1058 0.0177898 -0.00105222 0.000546866 
188 1 28.1003 28.2199 -10.0428 0.00688594 -0.0105733 0.00956455 
208 2 28.7408 25.9196 -9.50414 0.0186496 0.0118752 0.00549935 
196 1 28.4052 26.8761 -9.15782 -0.0180489 -0.00938465 -0.021379 
182 1 27.831 29.2451 -9.27757 0.0203956 0.0231881 0.0136407 
190 1 27.6032 28.1039 -7.08941 -0.0121604 -0.0079831 0.00389311 
199 1 28.0719 26.8957 -7.81795 -0.00901001 0.00714045 -0.0131063 
211 2 27.9401 26.166 -7.12328 -0.0740436 0.0231579 -0.0323545 
184 1 27.4408 29.4275 -7.86707 0.00796965 0.0165106 -0.0291686 
195 1 28.2401 28.2101 -11.5007 0.0137664 0.0159232 0.00275115 
193 1 27.9717 29.4929 -11.7991 0.000821317 0.00692837 0.0106239 
209 2 25.9994 34.0286 -11.4629 -0.0485547 -0.0930249 -0.00473332 
187 1 27.3255 30.727 -11.1147 -0.0106321 -0.00487761 0.00915173 
189 1 26.4485 32.6853 -9.51952 -0.0144158 -0.0153488 0.0203676 
181 1 27.4573 30.6207 -9.81184 0.00858753 -0.0209912 0.0047481 
186 1 27.2477 30.4483 -6.92751 -0.0196838 -0.00562393 0.0109827 
183 1 27.0979 31.648 -8.86895 0.0120368 -0.00444559 -0.0345608 
213 2 26.8744 35.3976 -7.18623 0.105954 0.0644316 0.0348562 
201 1 26.8631 34.2999 -7.43056 0.00770559 -0.0314573 0.0339619 
191 1 26.7456 32.9529 -6.75689 -0.0394458 -0.0110943 0.0153402 
185 1 27.1679 31.7762 -7.30802 0.0144168 0.016668 -0.00763049 
198 1 27.0264 33.8304 -8.74497 -0.0163154 -0.0096986 -0.0135553 
197 1 26.3058 32.9247 -11.0073 -0.044365 0.0146624 -0.000125661 
194 1 26.798 31.9913 -11.6583 0.000855078 0.000861886 0.0119635 
200 1 27.0867 28.1414 -5.77653 0.0155272 0.0288552 0.0170636 
212 2 27.4889 27.1421 -5.33415 -0.0168598 0.061802 -0.0384596 
215 2 26.0048 28.9823 -3.76436 -0.00652625 -0.0858395 0.0278291 
203 1 26.4553 29.0474 -4.81249 0.00114564 0.00574615 0.0170387 
214 2 27.2195 33.4098 -4.89377 -0.0120511 -0.0345909 -0.0121214 
192 1 26.5292 30.2802 -5.5342 -0.0170565 -0.0144583 -0.00219698 
202 1 26.3133 32.9606 -5.22719 -0.00273491 -0.0134723 0.024762 
204 1 26.0026 31.6868 -4.9032 -0.0214239 0.0351251 -0.0116568 
248 2 15.4397 22.3356 17.5774 0.0102874 0.0306306 0.0421211 
236 1 16.3382 22.8958 17.8377 0.00676015 -0.00800835 -0.000640517 
239 1 16.6215 24.2649 17.6377 0.00683349 0.0317849 0.0106196 
251 2 15.8378 24.9215 17.3836 -0.0293033 -0.0477647 -0.0536172 
252 2 17.5094 26.7608 17.4592 0.0217102 -0.01613 -0.0502063 
228 1 18.1236 24.7354 17.8822 -0.00877781 0.011002 0.0171554 
569 2 28.0327 29.1696 17.6283 -0.0809142 -0.0534297 0.0324796 
567 2 23.3187 33.768 16.3209 0.00542395 -0.0639016 0.0072162 
568 2 23.2369 35.5833 17.9696 -0.0183109 -0.0179383 -0.00922296 
555 1 24.1006 33.5647 17.0924 0.00679356 -0.00828667 0.0182072 
565 2 24.8378 32.0356 15.609 -0.0541469 -0.0235626 -0.0272026 
553 1 24.9222 32.3525 16.7178 -0.0091697 0.0151277 -0.00639477 
547 1 25.5591 31.7502 17.9294 0.0110766 0.014357 -0.00355304 
171 2 27.8569 15.4793 23.718 0.0454156 0.0161289 0.0534958 
158 1 28.5777 12.7367 23.8969 -0.00773306 -0.00924994 -0.0191481 
170 2 28.8631 12.6855 22.8029 -0.00316199 0.0491744 0.058321 
247 2 15.9177 20.6064 18.172 -0.0682617 0.014065 0.101629 
226 1 17.3847 22.0129 18.4957 0.0134375 0.0101469 -0.0119681 
235 1 16.8392 20.6639 18.8474 -0.00708984 0.00629768 -0.00255513 
232 1 17.3271 20.1564 20.0152 0.00147773 0.011088 -0.0285805 
244 2 16.5381 19.5017 20.6295 -0.0461785 0.0105184 0.0219963 
220 1 18.4632 22.4345 18.9932 0.0297322 0.00310865 0.0190473 
243 2 19.9445 18.3817 20.4294 0.0413674 0.135949 0.0740029 
241 2 21.3462 18.5476 21.5477 0.0213042 -0.0283766 -0.0250621 
229 1 20.8353 19.6356 21.3148 -0.00159064 -0.00909335 0.0102801 
231 1 19.821 19.3244 20.6017 0.0119322 0.045934 0.00244041 
222 1 18.8668 23.774 18.7725 -0.00281193 0.00490842 -0.0332287 
218 1 19.3527 21.493 19.9732 -0.00712188 -0.017667 0.00820157 
219 1 20.4791 23.5201 20.6897 -0.0235364 -0.000519589 0.0111096 
217 1 20.5115 22.1571 20.5896 0.00247207 -0.0195832 -0.0108939 
224 1 18.7496 20.3653 20.2335 0.0155881 0.000211154 0.00660156 
223 1 20.8141 21.1308 21.7342 -0.00978126 0.0122638 -0.0153239 
225 1 20.6587 23.9985 22.1314 0.00342047 -0.0187639 -0.00980121 
230 1 21.2027 21.4572 22.921 -0.0210843 -0.0188424 0.0127477 
242 2 21.603 20.8607 23.4521 0.00988638 -0.00482364 -0.0237404 
233 1 21.0053 23.0076 23.0908 -0.0158462 0.0574663 -0.00697752 
245 2 21.6363 23.2246 23.8102 -0.0188896 -0.0221093 -0.108566 
221 1 19.6661 24.4318 19.756 0.00361863 -0.0291867 0.00922138 
250 2 18.4619 27.7724 19.6968 0.12181 -0.114974 0.0349923 
240 1 18.3613 26.1797 18.1395 -0.0216112 0.00379067 0.00598989 
234 1 21.0951 25.4174 22.0848 -0.0170604 -0.00472423 -0.00542219 
238 1 18.7209 26.5951 19.4558 0.00259717 0.00336943 0.0293202 
227 1 19.6776 25.9266 20.2624 -0.00904172 0.00784653 -0.0322815 
237 1 20.6968 26.2986 21.2074 -0.0147491 -0.00965128 0.0164335 
249 2 21.1781 27.1451 20.9943 -0.035418 0.026347 -0.080534 
246 2 21.9662 25.5802 22.7819 -0.0233777 -0.0500833 0.0425723 
566 2 25.1734 29.56 19.2566 -0.0381812 0.0216423 -0.0103298 
570 2 28.2975 29.0658 20.4491 -0.01781 0.0231559 -0.0134115 
556 1 23.9542 35.3325 18.5359 -0.00442795 0.0112709 0.0213243 
571 2 23.4572 35.8171 20.7081 0.0889552 0.0203451 -0.0353678 
548 1 24.6724 34.27 18.205 0.0104758 0.0101336 -0.00137078 
557 1 27.5481 30.1414 18.0743 0.010622 0.0329135 0.0076891 
542 1 25.4836 33.9509 19.2355 -0.0262481 0.00493071 0.00649991 
554 1 26.0341 30.2582 18.4605 -0.00860033 -0.00875701 -0.00263124 
558 1 28.4836 30.2433 20.4764 -0.018622 0.0215541 -0.00864396 
549 1 27.8707 30.9263 19.3579 0.0176762 0.00715909 -0.00376975 
544 1 25.868 34.9383 20.1746 -0.0260365 -0.0203762 -0.0141533 
552 1 27.9867 35.4065 21.5098 0.00415803 0.00931326 -0.014587 
541 1 26.0216 32.6264 19.0527 0.00527663 0.00139363 -0.0106913 
546 1 27.2841 34.4421 20.6598 0.00737011 0.0141447 0.00727268 
543 1 26.8771 31.844 19.924 0.000428644 0.017438 -0.0203635 
545 1 27.5956 33.0511 20.7975 0.0170106 0.00134106 0.00287323 
564 1 29.3552 35.0833 21.9937 -0.0207518 -0.0129907 0.0131927 
562 1 29.6085 33.6756 22.3823 0.0287438 -0.0150918 0.0250467 
551 1 29.087 32.7965 21.4394 0.00669598 0.0055381 0.0219201 
561 1 28.761 31.367 21.3575 -0.00312044 -0.00743664 0.0254145 
573 2 29.3706 30.9386 22.2312 -0.00954387 0.0536044 0.0441475 
574 2 29.7298 33.457 23.3889 0.056816 -0.00350939 0.0754676 
559 1 24.2903 35.8767 19.9662 -0.00223392 0.0050643 0.00905335 
161 1 29.4869 12.026 24.7124 0.0261282 -0.000198474 -0.0173876 
175 2 24.5461 16.317 29.1794 0.0618428 0.0433162 -0.00240648 
163 1 25.3796 15.9347 28.6278 0.00736911 0.0128943 -0.00689804 
172 2 25.5998 17.3885 27.0804 -0.0410135 -0.018246 0.0762177 
160 1 25.8577 16.5097 27.389 0.00209158 -0.0110122 0.0180274 
151 1 28.0099 13.5148 24.8331 -0.00358342 -0.0190994 0.0165323 
145 1 28.2009 13.3995 26.2182 -0.0168776 0.0324829 0.0101098 
146 1 27.1004 14.0822 27.0356 0.00831251 -0.0106533 -0.0409294 
152 1 26.5645 15.4262 26.6002 0.0238591 0.00955122 0.020563 
159 1 26.6728 15.6528 25.3172 0.00797905 -0.0252518 -0.0214234 
169 2 26.2747 16.6647 25.1396 0.0200513 -0.00536029 -0.0659672 
148 1 26.9326 13.877 28.4591 0.0161186 0.00685459 0.0170064 
154 1 26.0182 14.7532 28.8985 0.00473506 0.0249561 -0.00146209 
150 1 27.8267 12.6536 29.0696 0.00169482 -0.00404002 0.00550065 
157 1 27.5534 14.9203 24.5585 -0.00704788 0.0106196 0.00952731 
147 1 29.326 12.8585 27.1195 0.0070288 0.0197004 0.0114541 
153 1 29.8576 12.0397 26.076 0.00544121 -0.00950307 0.00398336 
164 1 25.5005 13.7993 30.1915 -0.0325772 -0.00465595 0.0173274 
176 2 24.5184 14.4625 30.389 0.0413022 -0.00923274 0.0393891 
167 1 26.2697 12.6923 30.666 -0.0121425 0.01633 -0.00322582 
207 2 28.0931 27.6666 35.4466 0.113209 -0.0196268 0.0746147 
205 2 28.2906 29.7849 35.1424 0.031716 -0.0202881 0.0867313 
206 2 26.3573 31.9605 35.2134 -0.0380134 0.0191213 -0.0601663 
60 1 38.65 -11.1357 -9.43236 0.0227326 -0.0171941 0.00792993 
48 1 38.9468 -10.7795 -10.6677 0.00245164 0.0212105 -0.0171963 
42 1 37.6836 -11.6581 -11.4406 0.0323841 -0.00678715 -0.0289561 
56 1 39.3924 -9.23196 -10.9783 -0.00783523 -0.00448502 0.00771327 
59 1 39.2869 -8.81416 -9.56299 -0.000622957 -0.00358651 0.00604531 
68 2 39.348 -7.7008 -9.53611 0.00357299 -0.00864529 0.0477522 
72 2 39.428 -8.7234 -11.8434 -0.00730029 0.0804287 0.00464021 
97 2 51.7359 10.2113 5.27897 0.0629637 0.0646978 -0.0733361 
85 1 52.7464 9.87348 5.67117 0.00280288 0.000289894 0.00317275 
87 1 53.8606 9.00953 5.62024 0.0111754 0.0243828 -0.00415393 
99 2 54.3936 8.89617 4.56317 0.022252 -0.0784722 -0.0357476 
100 2 56.8961 8.00885 5.99305 0.00709756 -0.0191906 -0.0195651 
323 2 58.0403 -7.22982 6.18691 0.0760467 -0.0104329 -0.0232422 
320 2 55.6468 -6.59346 8.07651 0.047323 0.0922962 -0.0368432 
311 1 58.0795 -6.63743 7.17812 -0.0340916 -0.00123682 0.0264388 
308 1 56.8349 -6.23299 8.0327 -0.00682055 -0.0140588 0.0214079 
319 2 54.6177 -4.65705 9.8368 0.0111927 0.0232167 0.077358 
304 1 55.9546 -3.55301 10.7701 0.00725711 -0.00611815 0.00271666 
290 1 58.1159 -3.36618 10.4383 0.000143856 -0.0244868 0.00645827 
289 1 59.3251 -2.634 10.5176 0.0243517 0.0120994 -0.00729827 
296 1 57.1145 -2.9415 11.3078 0.0231122 0.005109 0.017504 
292 1 57.9957 -4.52882 9.74928 -0.0131384 0.00394447 -0.0160026 
316 2 55.7127 -3.9261 11.7014 0.00284419 -0.0182925 -0.00566398 
294 1 59.1069 -4.72052 8.81997 0.0247324 0.00272328 -0.0368332 
307 1 55.7554 -4.85465 10.091 -0.0124622 -0.0204133 0.00866797 
298 1 56.731 -5.29178 9.17044 -0.0211116 -0.00393968 -0.00465634 
300 1 59.1497 -5.72577 7.64441 0.0115061 -0.0194764 0.00387429 
295 1 59.4919 -1.75444 11.7556 0.00268255 -0.00346576 -0.00823267 
104 2 56.6071 5.24841 10.2806 -0.00754373 0.041873 -0.10161 
98 2 51.3532 11.8413 6.77802 0.0737612 -0.0778192 -0.00502748 
78 1 53.5718 7.14239 9.98928 -0.00287682 -0.00281991 -0.00480314 
86 1 51.2639 11.0719 7.5717 -0.00493469 0.0230704 0.0141749 
79 1 52.2803 9.92474 7.08068 0.000144722 0.00874909 0.00745608 
77 1 52.315 7.99869 10.3189 0.00860539 0.0139538 0.001839 
89 1 50.5264 10.8145 8.80454 -0.0128929 -0.0147769 0.0126726 
73 1 52.4517 9.07181 8.16061 -0.00820787 0.0144821 0.0187704 
101 2 50.2125 11.611 9.54287 0.102615 -0.0916915 -0.0134993 
81 1 50.5405 9.46185 9.4212 0.00411219 0.0100239 0.0217906 
75 1 51.852 8.81662 9.35805 -0.0118634 0.0193398 -0.00160321 
83 1 51.3566 7.90424 11.4934 0.00995871 0.00643412 -0.0021216 
90 1 49.525 9.26928 10.2562 -0.0180934 -0.0271648 -0.000563871 
102 2 48.6711 9.93055 10.2508 0.0208078 -0.0246905 0.012258 
93 1 50.0294 8.53704 11.4535 -0.0078081 0.00661564 0.0031224 
74 1 53.7737 8.48385 7.99184 0.00149089 0.011484 -0.00354398 
94 1 52.0585 6.62877 11.9835 -0.0214947 0.0155639 0.00277911 
76 1 54.2351 7.29016 8.7955 0.00346997 0.0422206 0.00352537 
80 1 54.4036 8.5904 6.76415 0.00266848 0.00326644 0.00992077 
103 2 57.2731 6.29212 7.68972 -0.00699108 0.0805284 0.0475168 
88 1 55.953 7.81651 6.61707 -0.0161483 0.026334 -0.0112788 
84 1 54.3644 7.38421 11.223 -0.00464243 0.027962 -0.017984 
91 1 56.2752 6.79634 7.61689 -0.0145323 0.00137444 -0.00991315 
95 1 55.7344 7.04991 11.3795 -0.0257298 -0.00507289 0.0139847 
92 1 56.3374 6.42341 10.2458 -0.0299445 -0.012766 -0.021569 
82 1 55.5385 6.65414 8.92587 -0.00344931 -0.0237666 -0.00590633 
303 1 57.3838 -2.45679 12.6345 0.0290471 0.0126608 -0.0287998 
313 2 58.5909 -1.11361 13.536 -0.0694147 -0.0183679 0.115834 
301 1 58.5929 -1.9217 12.9622 -0.0077417 0.00770336 0.0191627 
315 2 56.4742 -2.74593 13.2333 0.146342 -0.0351959 0.0105287 
106 2 51.5373 5.80819 12.4947 0.0760696 0.00546755 -0.0863881 
96 1 53.4858 6.7352 12.347 0.00814359 0.00287366 0.0341269 
107 2 55.7412 6.71101 12.4147 -0.052499 0.0632215 0.0977532 
64 2 39.3802 -11.2616 31.293 0.0362244 0.0338261 0.107165 
40 1 37.7802 -11.4425 35.1814 0.0123924 0.0181274 0.0196347 
55 1 38.4171 -10.7652 33.2106 -0.0318891 -0.0164448 0.0134207 
67 2 37.6669 -9.31581 33.8904 0.021005 0.0401286 0.0198744 
46 1 37.8206 -10.3684 34.254 0.0113195 -0.0178432 0.00339679 
52 1 39.0281 -11.4132 32.3327 -0.0100709 0.0298845 0.0221973 
287 2 45.3469 16.6518 -10.8329 0.0211307 -0.0563122 -0.00807702 
288 2 42.9255 17.9419 -10.4109 0.00281874 -0.0245266 0.0923374 
275 1 45.0377 17.0554 -11.8191 -0.0122977 -0.0416087 0.000844449 
286 2 41.5407 19.8243 -11.3752 0.125511 -0.0181612 0.0519426 
274 1 42.3671 19.4452 -11.9182 -0.000120268 -0.0206945 0.000628806 
276 1 43.0087 18.329 -11.371 0.0104213 -0.00754476 -0.00437743 
65 2 37.8911 29.9666 -11.3844 -0.0299373 0.00620172 0.0200262 
66 2 38.2274 33.3392 -7.9634 -0.0458119 0.00627707 0.0523649 
57 1 37.9788 33.191 -8.96855 0.00472267 0.00358443 -0.047297 
53 1 37.9957 30.913 -11.9156 -0.00154818 0.0167568 -0.000563781 
357 2 41.1218 31.5743 -9.83955 0.0728883 -0.0284563 0.0486959 
41 1 37.883 35.029 -10.9753 -0.00447751 0.00122181 -0.00700295 
39 1 37.8351 33.5651 -11.7973 -0.0179005 0.0220829 -0.000187523 
45 1 37.4686 32.2712 -11.336 -0.00849571 -0.00450355 -0.00248213 
54 1 37.4839 32.1449 -9.78137 0.0206518 -0.022884 0.0042144 
47 1 38.1383 34.6279 -9.59062 -0.0129434 0.00395247 0.00450791 
69 2 37.64 31.0485 -9.60915 0.0378801 0.0855842 0.0422233 
58 1 38.0939 35.8474 -8.80394 0.0193599 0.00983231 -0.024925 
70 2 37.5465 35.7196 -7.79306 -0.0529382 -0.0914885 -0.0157621 
277 2 45.8754 20.7115 29.0037 -0.00782633 -0.0331556 -0.0360577 
266 1 43.0439 21.7839 29.9687 0.0251047 0.00443803 0.0131041 
265 1 45.1734 20.0722 29.5244 -0.0255109 0.00165353 -0.0119433 
278 2 42.7535 21.3823 28.9243 -0.0843339 0.0278761 -0.0108584 
267 1 45.7426 18.7399 29.8784 -0.0062815 0.0121315 -0.00235346 
279 2 46.5412 18.5902 29.007 -0.0259116 0.0281986 -0.0205961 
284 2 47.1119 16.191 35.0327 0.0141351 -0.0183604 -0.0562488 
271 1 47.2391 17.3836 33.0166 0.00237382 0.0262675 -0.0164413 
272 1 46.1283 16.867 35.2112 -0.00491306 0.0214959 -0.00693193 
283 2 47.9031 16.7842 33.5565 0.0333971 0.014577 0.0352072 
268 1 46.9543 17.4664 31.5931 0.00626785 -0.0137895 0.0276569 
280 2 47.1934 16.3958 31.107 -0.0587535 -0.0617721 0.0949772 
262 1 45.9511 17.5198 33.9324 0.0059832 -0.01125 0.00168593 
264 1 43.9618 17.7003 35.6974 0.016917 -0.0194835 0.00654224 
281 2 41.2958 22.9829 30.7497 0.13779 0.0134899 -0.0827863 
269 1 41.9552 22.1712 30.9304 0.0103071 -0.0104113 -0.00909326 
270 1 41.4708 21.661 33.7351 -0.0133659 0.00227388 -0.00516817 
273 1 41.08 21.2098 34.8552 -0.00643643 0.0103937 -0.000690613 
285 2 39.9379 20.9454 35.0785 -0.0557219 -0.020069 0.0866462 
261 1 42.283 21.4865 32.3087 0.0246278 0.00805224 -0.00504231 
263 1 42.4911 20.5888 35.3347 -0.0034958 0.00536879 -0.00342915 