ITEM: TIMESTEP
670000
ITEM: NUMBER OF ATOMS
576
ITEM: BOX BOUNDS pp pp pp
-1.2000000000000000e+01 8.4000000000000000e+01
-1.2000000000000000e+01 3.6000000000000000e+01
-1.2000000000000000e+01 3.6000000000000000e+01
ITEM: ATOMS id type x y z vx vy vz 
550 1 11.3638 -1.45365 5.78256 -0.00953076 -0.000536882 -0.000437701 
559 1 10.2197 -1.07733 3.12342 -0.033823 0.0140312 0.0141773 
571 2 9.50771 -0.182658 3.10024 0.0232581 -0.0628033 -0.00582416 
556 1 11.427 -1.34846 2.58006 -0.014216 0.0358508 -0.00394055 
560 1 10.7027 -0.270463 5.67056 0.00628245 -0.0178698 -0.0200195 
177 2 9.47082 2.57938 5.87298 -0.121556 -0.022449 -0.0619191 
546 1 11.8473 -3.27619 7.2377 -0.0213641 -0.0105073 -0.0138144 
575 2 11.3317 -2.88827 8.11884 0.0639907 -0.0217721 -0.0303347 
552 1 10.5796 1.02104 6.00693 -0.00774744 0.00695789 -0.00565554 
563 1 10.3345 2.3741 6.46305 0.00635186 -0.00182787 0.0130515 
572 2 10.9443 3.29478 6.74077 0.15752 0.0571602 0.0818788 
544 1 11.9091 -2.57022 6.07073 0.0149738 -0.0201748 0.00315551 
568 2 11.6887 -0.525793 1.87737 0.0963087 -0.0496665 0.0165505 
210 2 10.8691 -5.83753 -9.17414 0.0104143 0.0320922 0.042674 
284 2 10.756 -5.41129 -8.47186 -0.191626 0.0491621 -0.0240195 
315 2 -11.9406 -3.35486 23.9353 -0.0261429 0.0185079 0.014198 
409 1 -9.94673 28.2354 -8.3741 0.00320269 -0.008398 -0.00791707 
425 2 -8.33163 26.3623 -9.09732 -0.00119126 -0.000112265 -0.140573 
410 1 -10.3599 26.2893 -9.37647 0.0212578 -0.00397267 -0.0063405 
422 2 -9.23223 24.8844 -10.1 -0.0902899 0.0588341 0.0374278 
413 1 -9.16747 25.8157 -9.53943 0.00848209 0.00571643 -0.0156885 
403 1 -11.0073 27.221 -8.81707 0.0247071 -0.0124392 -0.0331487 
423 2 -8.91827 28.2609 -8.68611 0.0547159 -0.00102421 -0.016032 
407 1 -11.7821 26.7425 -4.06712 0.0179161 0.0322445 -0.00358491 
411 1 -10.3217 28.5276 -6.9311 0.00233539 -0.00691026 -0.0238413 
427 2 -10.1451 29.0801 -6.11386 -0.0352455 -0.0327826 0.0319862 
429 2 -9.72695 27.1573 -4.96409 0.049699 0.00571324 -0.112512 
417 1 -10.625 26.3565 -4.73787 -0.0154407 -0.0185878 -0.0078704 
33 2 -11.5866 24.4082 -8.88454 -0.0328904 -0.0464958 -0.0626938 
404 1 -11.8769 28.6984 -6.73683 0.0119232 -0.00307112 0.00290206 
463 2 26.3017 -2.21563 9.7084 -0.139213 0.00791261 0.0290175 
448 1 26.9431 -2.81732 11.7966 0.000426012 0.0166561 -0.0192262 
288 2 26.4461 -0.511254 -5.57523 0.0263455 0.0185588 -0.0122953 
286 2 28.0561 1.23894 -5.51483 -0.00299288 0.0207486 -0.00494493 
287 2 21.7972 0.231514 -5.48796 -0.0537024 -0.0618159 -0.0301272 
272 1 22.5418 0.357154 -4.66975 -0.0147978 -0.00195455 -0.00126338 
275 1 23.818 -0.0256857 -4.90246 -0.026576 0.0092261 -0.000191254 
280 2 19.7222 4.25284 -2.85155 -0.0441524 -0.0876488 0.107502 
271 1 21.1649 2.29963 -3.4317 0.00173373 0.00986216 0.00475349 
268 1 20.7938 3.59402 -2.83937 0.0118172 -0.00438433 -0.0183983 
260 1 21.8952 4.10398 -2.08846 -0.028096 -0.0085735 0.0125967 
262 1 22.3513 1.65762 -3.63007 -0.0173848 -0.00527401 0.0037481 
267 1 21.8847 5.26575 -1.1853 0.0253525 -0.00175133 -0.033061 
279 2 20.6851 5.58761 -0.883345 0.0232263 -0.0248241 0.0703813 
256 1 23.4182 2.5654 -3.20305 0.0164073 0.0177362 -0.00343926 
254 1 23.1829 3.51961 -2.10027 0.00909077 0.0218241 -0.0125597 
265 1 22.8678 6.0327 -0.55942 0.00263343 0.0146494 0.00762504 
276 1 26.3593 0.229062 -4.84403 0.00495224 -0.032048 0.0198811 
264 1 25.1069 0.679271 -4.31368 -0.00793192 0.00197235 -0.0101683 
259 1 24.039 5.32814 -1.07312 -0.00818597 0.0204316 -0.00540092 
253 1 24.3331 4.06179 -1.56313 -0.0178792 0.0433907 0.0125476 
261 1 26.7643 4.72722 -2.50201 -0.0243109 0.0280584 -0.00298988 
255 1 25.4778 3.90621 -2.52275 -0.00705465 0.0144875 -0.0117042 
258 1 24.7316 1.81801 -3.52074 -0.0010076 0.00156707 0.0134049 
273 1 27.9428 3.64368 -4.21763 -0.00763265 0.020255 -0.0190285 
257 1 25.7156 2.74157 -3.38397 0.00894744 -0.00181875 -0.0199878 
263 1 26.8545 2.64218 -4.11638 0.00407983 0.0102611 0.00597518 
274 1 27.3345 1.42832 -4.66262 -0.00794876 -0.0235623 0.0181934 
270 1 28.1412 4.51397 -3.0326 0.00212344 -0.0346491 -0.00575889 
285 2 29.2452 4.59733 -2.99266 0.0803219 -0.0428241 -0.00144043 
269 1 26.362 5.62513 -1.53761 0.016767 -0.0161604 0.0117245 
266 1 25.4072 5.92574 -0.843264 -0.0120051 0.0124849 0.0159698 
566 2 15.3346 -5.80705 3.02501 -0.000258214 0.00711616 -0.0343017 
569 2 12.7949 -6.3515 3.78046 -0.0396727 0.00358005 -0.0986992 
554 1 15.4046 -5.82224 5.23074 0.00428741 0.0118554 0.0238974 
557 1 15.4894 -6.06796 3.98326 -0.00578215 0.00834754 0.0293973 
565 2 13.8956 -4.88213 2.21859 -0.00270546 0.0626496 -0.0213935 
553 1 13.318 -4.30475 2.80402 0.00695982 -0.0040727 -0.0194745 
542 1 12.2002 -2.95362 4.47508 0.0257807 -0.0364776 0.0112979 
541 1 12.8047 -4.21861 5.00544 -0.0119568 0.00250905 -0.0120639 
555 1 12.4432 -1.99802 3.39197 -0.000340969 -0.00221091 0.00128291 
548 1 13.0913 -2.85603 2.39727 -0.0166277 0.0142062 -0.0144788 
547 1 12.7807 -5.26792 3.7742 -0.00149828 -0.00534075 0.0175695 
567 2 14.2892 -2.45618 2.57394 0.0459448 -0.0487733 -0.0208279 
467 2 27.3573 -3.30049 7.90324 -0.0108152 -0.0234485 -0.04512 
421 2 14.327 -3.88955 10.2273 0.0825541 0.0108892 -0.00123222 
277 2 22.7137 6.70469 0.223231 -0.0520481 -0.0381721 -0.010768 
281 2 25.4425 6.91496 -0.386293 -0.0342006 0.0467619 0.0623011 
570 2 16.3171 -6.26701 7.89638 0.047683 -0.0546724 0.0153889 
353 2 21.986 -10.3021 7.67709 0.027965 -0.0610706 0.0699905 
354 2 19.6643 -9.93289 8.78688 0.0751759 -0.0138275 0.0454381 
341 1 22.2459 -11.0139 8.47645 -0.00699497 -0.00973652 -0.0121517 
342 1 19.8572 -10.9373 9.42528 0.00269574 0.00184974 0.0398073 
345 1 18.7987 -11.4996 10.1679 -0.0294398 -0.0118093 -0.011021 
333 1 21.1694 -11.4261 9.43345 -0.00675953 -0.00639785 -0.0061704 
216 2 17.8124 -11.061 10.0694 0.00544591 0.0219377 0.0342548 
350 2 24.2829 -11.447 7.37829 -0.0804224 -0.0207209 0.088446 
444 1 28.5637 -6.65697 8.70961 0.00119446 0.00413906 0.0116833 
437 1 28.8545 -7.7257 10.8534 -0.009464 0.0203887 0.00291742 
443 1 29.8569 -9.88367 10.32 0.0286062 0.00243561 -0.0177456 
454 1 29.5086 -8.52735 9.77716 -0.00793515 -0.00812471 -0.0141888 
468 2 29.0639 -8.99079 7.64668 -0.00324296 0.057932 -0.00394689 
456 1 28.8561 -8.1031 8.44456 0.00369433 -0.0153344 0.00749723 
438 1 28.193 -6.61287 10.1203 -0.0008192 0.0102507 -0.0205648 
338 1 23.4135 -11.6174 8.14164 -0.0126304 0.0199094 0.00570725 
453 1 30.6604 -9.6315 11.58 0.00506701 0.00273485 0.00606029 
573 2 14.0504 -6.63643 9.68039 0.0496249 -0.0544866 -0.139406 
576 2 13.5731 -1.66035 8.33617 0.0435218 -0.0461118 0.0634403 
543 1 13.5649 -4.34884 6.21854 0.0246192 0.00323487 -0.0271385 
562 1 13.4365 -3.55831 9.73262 0.0128283 -0.0103382 0.0161188 
551 1 13.3148 -4.75855 8.80476 -0.0192305 -0.00653256 0.00521853 
549 1 14.8772 -5.07862 6.42973 -0.024558 0.00109065 0.00105637 
545 1 12.9247 -4.16413 7.50089 0.0245063 0.00580175 0.0135389 
561 1 14.0555 -6.03213 8.83791 0.0160804 -0.00884259 -0.00349137 
564 1 13.5468 -2.15891 9.3147 -0.00204111 0.002133 0.0155248 
558 1 15.2687 -5.67013 7.93451 0.00188583 0.00689027 -0.0291371 
455 1 28.5202 -5.29408 7.95329 0.0193287 -0.000638604 -0.00444451 
452 1 27.7242 -4.30321 8.18389 0.0170651 0.00195589 -0.000805754 
442 1 27.4548 -4.18235 9.92821 -0.00480766 -0.003133 0.00714084 
451 1 26.893 -3.12015 10.4575 0.0193678 -0.00785762 -0.00635304 
436 1 27.9432 -5.28547 10.7169 0.0132838 -0.0260693 -0.00336733 
461 2 26.2163 -9.70095 13.3499 0.119926 0.0338292 0.0134486 
450 1 29.6834 -9.43812 12.8569 -0.00479732 -0.00568057 -0.0103843 
462 2 29.639 -9.8662 13.8475 0.0974816 0.0151937 0.00336239 
449 1 27.1608 -8.98133 13.6388 0.0119886 -0.0137815 -0.0104212 
441 1 28.4691 -8.90665 12.8883 -0.0230444 0.00673406 0.0150222 
435 1 28.9178 -7.60067 12.2281 -0.00783735 0.0192772 0.0342719 
446 1 27.251 -7.76589 14.4572 0.00807196 -0.02715 0.0093681 
458 2 27.4594 -8.10086 15.4752 0.0232849 -0.0241886 -0.0285787 
433 1 28.3753 -6.4772 12.8121 -0.0117347 -0.0227596 0.0120285 
439 1 27.8251 -6.51222 14.1222 0.0263279 0.0251923 -0.048725 
457 2 26.5957 -5.3145 15.6734 -0.00490259 0.0458345 0.00379957 
440 1 27.347 -3.93812 12.7576 0.0102903 -0.0113868 0.0123589 
460 2 26.1183 -1.85123 11.5941 0.0737401 -0.104971 -0.0570936 
447 1 27.3738 -3.93393 14.2306 -0.0274481 -0.0323373 -0.0164888 
434 1 27.7876 -5.19252 12.0656 -0.00125536 0.00726459 -0.0229648 
459 2 27.1826 -2.86637 14.4151 0.0656309 0.029831 0.0587077 
445 1 27.2999 -5.14885 14.8542 -0.000101026 0.0106834 -0.0140894 
465 2 31.2529 -10.3357 11.8835 0.0255856 0.0179679 -0.03772 
248 2 16.2577 18.3035 1.17732 0.022648 -0.0364276 -0.0508731 
176 2 15.9128 18.8257 0.711067 0.0507291 0.00269127 0.0468788 
283 2 19.2697 14.2081 1.59888 -0.0305397 0.00494262 -0.135183 
278 2 19.0891 14.5969 0.851996 -0.0193436 -0.106417 -0.0809644 
358 2 17.0077 35.0137 11.5417 -0.0115783 0.000349174 -0.102966 
327 1 21.4137 35.2693 9.89195 -0.022385 -0.00936719 0.0139881 
329 1 20.2786 34.8495 10.6119 0.00325082 -0.0211267 -0.0278444 
346 1 18.064 34.8764 11.533 0.012026 0.0130906 0.00702931 
335 1 19.0302 35.326 10.6557 -0.00167136 -0.00946919 0.00365402 
330 1 20.7029 33.9207 11.2422 -0.0134328 0.0144361 0.00932314 
328 1 21.981 33.2175 11.5427 -0.00292646 -0.00071669 -0.0119576 
326 1 23.0303 33.4796 10.5494 -0.00651258 0.00034292 -0.011753 
325 1 22.6475 34.5255 9.66528 0.0104349 0.00221502 0.00910216 
331 1 23.8408 35.1799 9.17127 0.00554315 -0.0192634 -0.00186766 
349 2 25.8602 35.9376 9.28916 -0.0198192 0.0100408 -0.0166032 
332 1 24.3959 33.4878 11.1226 0.00701728 0.0194822 0.0139051 
351 2 26.3786 33.8193 10.4318 0.0520129 -0.0867918 0.0266386 
339 1 25.3817 34.005 10.1654 -0.00215412 -0.0111301 -0.0118862 
337 1 25.2135 35.103 9.30604 -0.0119698 0.0109308 0.011013 
71 2 12.6443 31.4607 -9.85834 0.0541275 -0.0262823 -0.0239133 
504 2 12.5708 31.5639 -10.77 0.0923416 -0.00537326 -0.0930664 
344 1 21.3105 32.4256 13.7141 0.00335595 -0.0252734 -0.0197245 
347 1 20.0432 32.49 13.1657 -0.0246397 -0.01287 0.00104956 
356 2 21.2124 31.9315 14.7232 -0.0826289 0.03677 0.051241 
359 2 19.0429 31.9731 13.6957 -0.00682483 -0.0502304 -0.0457286 
336 1 19.8054 33.4756 12.297 -0.00668212 -0.00225384 0.0177744 
334 1 22.2462 32.841 12.8616 0.00576279 -0.0270598 0.00739383 
360 2 17.7458 33.01 12.8906 0.032923 -0.0214978 0.0635213 
343 1 23.7369 32.9547 13.7066 -0.0023703 -0.0146171 0.023434 
348 1 18.4325 33.765 12.2781 -0.0368782 0.0060015 0.000571948 
340 1 24.4317 32.7749 12.4182 0.00765803 0.0121035 0.0138019 
466 2 39.0663 1.15458 16.5785 0.148007 0.0309835 0.0494497 
105 2 39.353 1.35504 15.5324 -0.104739 0.0751517 -0.0643664 
69 2 59.4606 -0.654031 19.0864 0.0940856 -0.00469835 0.0753669 
526 1 43.4533 9.27109 17.9374 0.00232191 -0.0280151 -0.0110855 
538 2 43.5373 8.29942 17.3312 0.0740269 -0.0579297 -0.0188623 
528 1 44.4984 10.2935 17.8119 0.0154865 0.00359371 0.00557301 
54 1 60.0315 -1.45465 19.3667 0.0104996 0.00395463 0.0246286 
510 1 44.2694 11.41 20.149 -0.0164939 -0.0118412 -0.00247538 
507 1 42.6223 9.74971 21.4065 0.0070823 0.0403881 -0.00851624 
521 1 40.0929 8.91162 22.8536 -0.0221478 0.0206118 0.0120808 
506 1 43.3378 11.9318 22.207 0.0233662 0.0249028 -0.00332026 
505 1 42.7278 10.6847 22.704 0.0253849 0.0129307 0.0182212 
511 1 41.9513 10.6106 23.7806 -0.0234278 -0.0148453 0.00585335 
518 1 41.2601 9.24853 23.6932 -0.00388401 -0.00369425 0.0195045 
517 1 41.574 11.9362 24.5461 0.0360646 0.00062236 0.0207412 
530 2 39.2749 9.68159 23.0108 0.0768953 0.0242533 0.0574158 
513 1 40.6711 7.8871 21.711 -0.00662562 -0.00202512 0.0125203 
515 1 43.1926 8.87789 19.3175 0.00309256 -0.0245267 -0.0363884 
509 1 43.4264 10.0453 20.2735 0.0257712 -0.0119095 0.0138191 
522 1 41.7046 8.42984 21.0651 -0.00938561 -0.00883726 0.035021 
533 2 40.0782 7.03826 21.5839 0.00513939 0.0817158 -0.026677 
525 1 42.5864 7.84066 20.1471 0.00432309 -0.0312631 0.0107943 
534 2 42.1678 6.9891 19.6393 -0.0407531 0.0296842 -0.0400907 
516 1 44.3731 11.4956 18.7188 0.0321288 -0.00790226 0.0242398 
179 2 50.5009 10.1239 29.6733 -0.015047 -0.0896232 0.0478269 
539 2 50.2625 10.4366 29.1739 0.0392768 0.00395554 -0.0214809 
232 1 37.269 24.9638 -10.8525 -0.010516 0.0148467 0.0088811 
224 1 38.4983 24.1479 -10.1608 0.020039 -0.000473943 0.00417927 
218 1 39.495 24.8556 -9.38296 -0.00771126 -0.0107988 0.0063466 
231 1 38.45 22.7486 -10.392 -0.016559 0.00601491 -0.00742007 
243 2 37.6967 22.2558 -11.0793 0.00251248 0.00489158 -0.016856 
229 1 39.6595 22.0864 -9.90972 -0.0227331 0.0139336 0.00211277 
217 1 40.7064 24.3047 -9.06089 0.0458115 0.00767918 0.0130546 
223 1 40.7784 22.8111 -9.44312 0.000340305 0.0256619 -0.0149751 
219 1 41.3915 24.9776 -7.90481 0.0101233 0.0135735 -0.00252169 
241 2 39.0636 21.3822 -9.36873 -0.0582664 0.0564315 0.0450484 
244 2 36.3237 24.8096 -11.3522 0.0118554 0.0733388 0.00831397 
242 2 42.1912 21.2271 -8.94386 -0.0029833 -0.0255663 -0.0314086 
230 1 41.7707 22.217 -8.64462 -0.0181929 0.0115169 0.00371298 
233 1 42.5116 23.0338 -7.71286 -0.0134819 0.0219766 -0.0220249 
245 2 43.1046 22.2336 -7.10423 0.0307148 -0.052314 -0.0235694 
225 1 41.8443 24.0715 -6.97106 -0.00229655 0.0321217 0.0107201 
220 1 39.2072 26.2442 -8.72511 -0.0157789 0.0317128 -0.0131671 
226 1 37.7456 26.6408 -8.9313 -0.00787251 0.0047578 0.0373365 
235 1 36.7415 25.7735 -9.75256 -0.0120137 -0.00599546 0.00830881 
251 2 36.1131 27.2932 -7.77625 0.0278986 -0.0662196 -0.0545713 
239 1 37.1429 27.1967 -7.86673 0.00124888 -0.0213945 0.00453587 
540 2 50.6942 29.391 11.6897 0.00651784 -0.0152991 0.0352756 
236 1 37.8024 27.4343 -6.52758 -0.00252313 -0.0138938 -0.00656769 
146 1 40.1096 28.1878 -10.3729 0.0106337 -0.00544946 -0.0140615 
145 1 40.974 27.095 -11.1432 -0.00702978 -0.0112795 0.00188315 
222 1 40.2015 27.0245 -7.92994 0.00325045 0.0154816 -0.00721736 
228 1 39.1969 27.7513 -6.94564 -0.0276108 0.0196655 0.00218875 
152 1 40.7664 28.6561 -9.20988 0.0189168 -0.00764648 -0.0132778 
148 1 38.941 29.0143 -10.773 0.00460686 -0.00565136 0.00979224 
221 1 41.4003 26.3738 -7.48184 0.00648833 0.0102518 -0.0168067 
159 1 42.2409 28.4721 -8.89314 -0.00386625 0.0323213 0.0021444 
172 2 40.1605 29.9976 -7.05487 0.0508372 -0.0233755 -0.00792997 
169 2 42.6474 29.4278 -8.30821 -0.00579961 -0.0482202 0.0531207 
357 2 43.976 29.9921 -5.85126 -0.0287188 -0.0953646 0.00352332 
150 1 38.5066 28.5498 -11.9082 0.0133268 -0.0142968 -0.0134462 
537 2 51.2478 29.658 11.2548 -0.0829363 0.0663962 0.0247236 
158 1 43.21 26.1718 -11.5819 0.0103268 -0.00683472 0.00993335 
151 1 42.397 26.864 -10.7968 -0.0293014 0.0060443 -0.00797987 
170 2 44.1492 25.7681 -10.9846 0.0332119 -0.00262677 -0.0697799 
157 1 42.9125 27.3566 -9.48313 0.0123523 0.0118422 0.00222336 
171 2 43.8314 26.9627 -8.91957 -0.0315488 0.00510971 -0.019531 
252 2 44.9498 28.0711 -5.41577 -0.0296931 0.089802 0.074869 
160 1 40.3995 29.7345 -8.15021 -0.00301491 -0.00392867 -0.0111904 
167 1 37.8076 32.7614 -10.0957 0.0150179 0.00947738 -0.00331631 
154 1 38.7442 30.3459 -10.1113 0.00880544 -0.00200335 0.00478829 
163 1 39.7664 30.6325 -9.00598 0.0151939 -0.00064858 -0.0127935 
164 1 38.323 31.6844 -10.2066 -0.00158265 -0.0350759 -0.00351171 
175 2 39.9381 31.7938 -8.77969 -0.0200215 0.108155 -0.0668055 
234 1 42.8847 24.7155 -5.96008 -0.00726607 0.00268807 -0.0185311 
246 2 43.6573 24.096 -5.41658 0.0169925 0.00471864 -0.0899614 
227 1 42.4248 27.011 -6.44426 0.00548293 0.000104195 0.0127081 
238 1 42.9554 27.9917 -6.06403 -0.0216251 -0.0105634 -0.010167 
240 1 43.9178 28.8718 -5.73734 0.00727042 -0.0152283 -0.0117234 
237 1 43.2736 25.9169 -5.71918 0.0105104 -0.0138709 -0.00769086 
249 2 44.0733 26.2507 -4.95541 0.00947837 0.00942935 -0.0486897 
135 2 45.1098 20.0171 4.58692 -0.158239 0.112227 0.000379362 
282 2 45.5426 19.8731 5.35634 -0.0109471 -0.00751852 -0.0524356 
180 2 37.0135 30.2135 -11.9049 0.0198218 -0.0182087 -0.0358399 
247 2 36.3433 25.5062 -8.76432 -0.00572135 0.135825 -0.0177573 
481 1 52.4477 23.5443 14.3295 0.00210794 -0.00603497 0.0104858 
483 1 51.0286 23.8543 14.7127 -0.0113421 0.0146024 0.0148272 
469 1 52.7624 22.0673 14.5512 -0.00959032 -0.00153246 -0.00921141 
493 2 50.7089 24.3274 13.7369 -0.0621289 -0.0494626 0.00610479 
475 1 51.993 20.8268 14.66 -0.00539996 0.00623949 -0.0378358 
108 2 50.9525 20.7627 13.9884 -0.0666355 -0.0529911 0.0339644 
482 1 52.0176 19.7699 15.6321 -0.0139694 -0.0172142 -0.00614706 
485 1 53.3736 19.7708 16.0802 -0.0272525 0.00150157 -0.0466007 
498 2 53.4986 18.7359 16.524 0.048984 -0.037454 -0.0241056 
471 1 54.2079 21.6685 14.7574 0.0128978 -0.000433427 0.00352104 
479 1 55.1133 22.7359 14.6885 -0.0204591 -0.0177436 -0.00668588 
474 1 56.5832 22.5797 14.4391 -0.010247 -0.0247434 -0.00892034 
497 2 57.3246 21.9259 14.7876 0.0155631 0.0717312 -0.0297489 
477 1 54.4025 20.7944 15.8397 0.0155124 0.00255179 -0.00617364 
501 2 56.4627 18.3022 17.0497 0.0977865 -0.0958106 -0.00374701 
488 1 55.6639 20.1673 16.0485 0.0138703 -0.0230732 -0.00277719 
491 1 56.6958 19.238 16.3576 -0.0118797 -0.00104341 -0.00588249 
476 1 53.4287 24.3214 13.6307 0.0212945 0.0337555 -0.0122069 
250 2 51.9119 27.3933 20.1255 -0.00691294 -0.00180774 0.0237294 
484 1 53.1485 25.8644 13.495 -0.0022112 -0.00922811 0.0409431 
470 1 54.5889 23.9194 14.398 0.0129803 0.0155309 -0.0067237 
478 1 55.2599 25.87 13.5245 0.0324914 -0.0185824 0.00783159 
472 1 55.7553 24.7269 14.0437 -0.0115172 0.00191979 0.0033627 
473 1 57.0211 23.8544 13.9208 0.0131051 0.0137101 -0.0209373 
480 1 58.3636 24.1001 13.9359 0.00642394 -0.00331223 -0.0163429 
490 1 59.3069 24.9248 13.8293 0.0193856 -0.00703436 0.00485373 
519 1 41.5362 13.169 23.7622 0.0158628 0.00275916 0.0164238 
520 1 43.0321 14.4769 22.3622 0.0179078 0.0128885 0.00664407 
499 2 51.8643 26.2045 13.5181 0.0650404 0.0568742 0.0313288 
508 1 44.165 12.331 20.9639 0.00193813 0.00299915 0.00387533 
532 2 42.9758 15.3348 22.945 -0.0252424 -0.0509321 -0.0164129 
512 1 42.6561 13.1025 22.85 0.00741374 0.00243299 0.00687881 
527 1 44.0606 12.9388 18.5388 -0.00698468 -0.000989579 0.0360951 
535 2 44.3677 15.8588 21.4704 0.0133141 -0.018687 0.0386975 
523 1 43.84 14.95 21.4254 0.0102898 0.0310534 -0.00767507 
536 2 43.1528 14.9034 19.3212 -0.017175 -0.0160132 0.0336607 
524 1 43.8729 14.1665 19.3853 -0.00737247 -0.00346096 -0.00456148 
514 1 44.251 13.7441 20.6331 -0.00460338 -0.0048904 0.00316809 
178 2 37.838 27.3842 32.6544 -0.0962201 -0.109448 -0.119506 
494 2 51.0072 19.1751 15.4002 0.00810004 0.0115339 0.148636 
500 2 57.3246 20.261 15.7919 -0.0240869 -0.0172502 -0.0631688 
531 2 40.4536 13.7141 23.7744 0.0519498 0.000744373 -0.137201 
487 1 54.2009 26.7447 13.4146 -0.00141777 0.0147297 0.0130635 
168 1 37.2258 28.9833 34.3549 0.00520612 2.48813e-05 -0.0119962 
156 1 37.3295 29.3382 35.5674 -0.0138988 -0.00300767 -0.0112332 
153 1 41.0844 26.1478 34.7346 -0.0155224 -0.0136375 -0.0229652 
149 1 39.0798 27.1527 35.5664 -0.0131639 -0.0203599 0.0213722 
155 1 38.346 26.9344 34.3904 0.0233036 0.0129038 0.00114427 
162 1 40.397 24.8655 34.3287 0.011071 0.0175643 -0.000638543 
165 1 39.4823 23.7701 34.359 0.00160332 -0.0114585 0.00364604 
174 2 38.6054 24.1749 35.0762 -0.00754858 -0.000351329 -0.0140513 
161 1 42.525 26.2666 35.2092 -0.00606491 -0.000893352 -0.0271061 
166 1 37.5701 28.0807 33.5443 0.043338 0.0214856 0.0101158 
173 2 43.005 25.8072 34.4505 -0.0116522 0.0212094 0.0039575 
147 1 40.4258 26.6964 35.6292 0.0258643 0.0164623 0.0151226 
503 2 54.2293 28.1272 13.2893 -0.070043 0.0816519 -0.0684078 
529 2 41.6305 12.2811 25.6004 -0.022925 -0.0796101 0.0338598 
198 1 69.3637 5.38081 -9.93429 0.0155049 0.0182515 -0.0109008 
189 1 70.7326 5.02428 -9.631 0.012744 -0.0169864 0.0128969 
183 1 71.4228 5.26598 -10.9435 -0.00167812 0.000864747 -0.00129484 
201 1 69.069 5.30427 -11.3642 -0.0152516 -0.0158979 0.034352 
209 2 70.5712 3.9977 -7.56446 -0.0310993 -0.00981192 -0.0266403 
197 1 71.0783 4.06412 -8.60615 -0.00250342 0.021358 0.0178562 
133 2 68.7919 5.01638 -8.77974 -0.0749834 -0.0517578 -0.0960906 
187 1 73.2859 3.96829 -9.58897 0.000217485 0.0254102 -0.0167857 
205 2 74.8734 2.84091 -8.83648 0.0483867 -0.0505836 0.0578172 
193 1 74.7499 3.69886 -9.47147 -0.00975338 -0.00497001 0.0132091 
207 2 76.5583 4.94518 -9.20018 -0.0596182 0.104285 -0.0310455 
195 1 75.6802 4.71169 -9.69783 -0.0204015 -0.0246644 0.00930032 
181 1 72.7925 4.84679 -10.8117 -0.0100458 -0.00772507 0.00365747 
206 2 72.7948 2.7706 -8.01494 0.0321265 -0.0253686 -0.0477154 
194 1 72.4242 3.42476 -8.64072 0.0101458 -0.0055438 0.000890625 
188 1 74.9263 5.3888 -11.0019 -0.0124036 -0.0262198 -0.0261948 
182 1 73.7298 5.1242 -11.7371 -0.0168134 -0.00948141 -0.0415237 
27 2 77.8254 1.65896 2.48775 0.0646429 0.000346507 -0.116494 
208 2 77.2084 5.50637 -11.6343 -0.015577 -0.00203093 -0.0380794 
15 1 76.9579 1.21985 1.62594 -0.00177453 0.0250615 0.00475252 
21 1 71.3358 -2.50291 0.666573 0.00871064 0.0202115 0.0144075 
34 2 71.0432 -1.79303 -2.49913 0.044787 0.0400526 0.051506 
36 2 72.1125 -1.28507 -3.58582 -0.0291918 0.00252588 0.0439925 
22 1 72.0823 -2.17508 -1.84502 -0.0308712 0.020391 0.00700671 
24 1 72.8108 -2.13268 -2.98808 -0.00151934 0.0102683 -0.0224429 
11 1 72.4675 -2.47387 -0.437958 0.0285364 0.0053578 0.0270006 
5 1 73.8223 -2.24744 -0.0958408 -0.0050047 -0.0119588 -0.00353075 
4 1 75.5009 -0.942035 -0.870096 0.0188412 -0.017055 0.00862507 
6 1 74.7669 -2.1426 -1.23664 -0.0218013 -0.00333133 -0.0161499 
12 1 74.2077 -1.81752 -2.56872 0.00212359 0.0248225 0.00839819 
23 1 75.3165 -1.60772 -3.48203 0.014318 0.0135115 0.00184936 
35 2 75.1212 -1.89931 -4.51222 0.0345448 0.0216991 0.0169352 
10 1 76.107 -0.0910549 -1.82285 0.0139947 -0.00754053 0.000306811 
19 1 76.4471 1.33267 -1.05609 0.00566274 -0.013038 -0.00571463 
20 1 75.9093 -0.466389 -3.30987 -0.00287196 -0.0131483 0.0222287 
16 1 77.0585 2.28465 -1.76895 -0.0145801 0.000989881 -0.0370986 
32 2 76.5294 -0.0485832 -3.87718 -0.0778178 -0.024136 -0.0349754 
28 2 77.2989 2.35896 -2.76485 0.163844 0.112584 0.00163269 
8 1 76.2806 1.15348 0.468356 0.00306842 -0.0206692 -0.0217946 
31 2 77.263 3.05419 -1.10173 0.024687 -0.0363469 -0.0237887 
18 1 72.136 -3.07413 1.85672 -0.00120016 -0.0243745 0.00620213 
30 2 72.2344 -4.0955 2.00052 -0.00494402 -0.0643626 0.0218253 
3 1 73.8575 -1.56562 1.29953 -0.00307394 0.0103479 0.0232646 
2 1 75.3856 -0.00411301 0.235107 0.0139621 0.0378331 0.0135687 
9 1 73.1307 -2.17421 2.09353 0.0135546 0.0156332 0.0358786 
1 1 75.1628 -0.953394 1.47204 0.00250748 0.0188534 0.00621442 
26 2 76.3574 -2.05013 2.8837 0.0500597 0.0367921 -0.0613754 
7 1 76.2232 -1.15384 2.37731 -0.0327676 -0.0105486 0.0195889 
13 1 77.4581 -0.191467 2.16294 0.0136869 0.0171913 0.0211981 
25 2 78.4327 -0.500373 2.14508 0.0608153 -0.00798724 -0.0341591 
352 2 74.9565 10.5984 7.12399 0.0528298 0.0268362 -0.0283853 
574 2 75.3492 9.99727 7.68271 0.110859 -0.0137719 -0.0974316 
394 2 62.6413 -11.8729 -7.11689 -0.0264535 -0.0722298 -0.0864855 
196 1 76.0193 5.82816 -11.7987 0.0119517 0.0150552 0.0189496 
387 2 82.5032 -11.479 31.3832 -0.0789711 -0.0351754 0.0573788 
68 2 68.3223 -2.78291 18.4556 -0.0107895 0.0682198 0.0143126 
123 1 67.8891 6.43139 18.8329 -0.0243669 0.00397311 -0.000460005 
116 1 68.0271 7.89642 18.361 -0.0277868 0.0452751 -0.00732857 
124 1 67.0708 8.56838 17.1248 -0.00580392 -0.00351773 0.00244689 
127 1 67.0607 9.59645 16.4336 -0.0164619 -0.010672 -0.00987878 
118 1 67.6398 10.7194 17.3696 -0.00346185 -0.0231691 0.00566574 
103 2 69.2157 -11.0081 13.8973 0.0951614 -0.0155752 0.13022 
139 2 66.4021 9.99346 15.444 -0.0468499 0.0410353 0.00343366 
365 1 76.7739 -11.8384 33.1588 0.0298222 -0.0139485 0.000745657 
309 1 77.1089 -6.45747 24.1979 0.0295919 0.017724 0.0276387 
317 2 79.5126 -7.47077 22.804 -0.0197182 0.0113716 0.0734209 
305 1 79.6294 -6.84225 23.6838 -0.00994458 0.0194494 -0.0237107 
60 1 63.6499 -3.84736 19.1054 0.00897192 -0.00761376 -0.0128433 
70 2 63.173 -4.99712 18.9369 -0.0551099 0.0780418 0.0979339 
58 1 62.8424 -2.98257 19.6974 0.00771897 0.00281793 0.0136207 
48 1 64.9415 -3.31478 19.4044 0.00389958 -0.0335176 -0.0258534 
47 1 61.5744 -3.51732 19.9712 0.0205441 0.0178166 0.0132399 
42 1 64.7798 -1.70576 19.6807 0.00091974 -0.0142959 -0.00281837 
41 1 63.5961 -1.66219 20.1653 0.00252691 0.0083192 -0.0139607 
57 1 60.4848 -2.3901 19.7708 0.00985207 -0.0261225 -0.0078967 
72 2 66.1629 -4.60158 18.6202 0.000732049 0.0125209 0.14968 
62 2 62.6601 -1.41522 22.7342 -0.00283863 -0.00648629 -0.031009 
39 1 63.0739 -0.3708 20.9465 0.000538743 0.0195608 -0.0112379 
40 1 65.6428 -0.629879 19.7601 0.0201228 -0.00588954 0.00687997 
56 1 66.2382 -3.49391 18.9506 -0.0104201 0.024751 -0.0129342 
59 1 67.3208 -2.55135 18.9652 -0.00655489 -0.0264894 0.00900936 
46 1 67.0358 -1.28204 19.3605 -0.0249352 0.00777881 0.0088828 
67 2 68.9505 -0.585435 18.2716 0.0259025 -0.0281153 -0.0684199 
55 1 68.1294 -0.333453 19.0874 -0.0275661 -0.0170531 -0.0231854 
297 1 78.6379 -6.05957 24.2629 -0.0165987 -0.00119101 0.00188796 
295 1 81.457 -5.44352 24.6174 -0.026065 -0.0324721 0.011672 
313 2 83.311 -5.53945 25.6389 0.0611401 0.0697682 -0.00368622 
45 1 62.4229 -0.490448 22.3761 -0.0219306 -0.0239953 -0.0123876 
53 1 62.0607 0.889605 22.8225 0.000160617 0.0190151 0.0217084 
50 1 63.3843 1.65257 23.0018 0.0297779 -0.0136972 0.0134544 
65 2 60.9491 1.12723 23.1497 0.0769841 -0.0671119 -0.0172022 
43 1 64.3944 1.6186 21.8449 -0.00674687 -0.0331718 0.0330307 
37 1 63.8824 0.525408 20.8335 -0.0324887 0.00505692 -0.0251511 
49 1 65.4298 2.16984 21.6459 -0.00318308 0.000123414 -0.00565102 
61 2 65.671 2.92787 22.4378 -0.00330679 0.137074 -0.00861554 
496 2 68.5489 5.14595 20.4626 0.0695041 0.0135158 0.0620865 
121 1 68.4819 5.97498 19.9086 -0.0118822 0.00320346 0.0190392 
38 1 65.1983 0.663417 20.1888 0.0215412 -0.0177586 0.0178636 
134 2 69.9022 5.38857 22.6526 0.00347533 0.0355716 0.0167635 
44 1 66.1051 1.76855 20.3348 0.00708405 0.0264534 0.00151325 
63 2 67.615 2.99899 20.5144 -0.0598566 -0.119813 -0.014909 
51 1 67.4973 2.04185 19.9594 -0.0263121 0.0093031 -0.00634283 
52 1 68.0825 0.930446 19.5798 0.00784891 -0.000271742 0.0368169 
122 1 69.9533 6.3492 22.1141 -0.0053826 0.0274668 0.0196727 
110 1 68.6807 8.77616 19.2026 -0.0128752 -0.0190191 0.00133219 
115 1 69.374 6.89363 20.9904 0.0173937 0.00340827 0.0190852 
125 1 70.8132 7.27168 22.6459 -0.0154411 -0.0262763 0.0180157 
114 1 68.8196 11.1346 19.4866 -0.0199852 0.00614512 0.0290507 
112 1 68.3957 10.1126 18.5897 -0.00416588 0.00121594 0.0240188 
117 1 70.9248 8.66513 22.0725 -0.00226918 0.00310704 -0.0211922 
126 1 71.7768 9.41742 22.7433 0.00424374 -0.0173743 -0.00218227 
109 1 69.6431 8.15134 20.2983 -0.0194839 0.00917544 0.00746143 
129 1 71.2152 10.7306 22.7218 -0.00644799 0.0301074 -0.00645125 
111 1 69.622 9.23304 21.2301 -0.0326084 0.0130233 0.000680108 
119 1 70.8013 11.1144 21.4031 0.0277869 0.000129971 0.00890578 
113 1 69.8454 10.5014 20.5204 -0.00997616 -0.00227485 -0.0313409 
137 2 71.3672 6.92021 23.3143 0.039626 0.0378819 0.0547717 
141 2 72.1403 11.4037 23.1631 0.0961058 -0.0450755 -0.0479172 
306 1 76.33 -5.65755 24.9682 -0.00507063 -0.00342838 0.0129573 
318 2 74.7842 -5.57169 26.7434 0.0511902 0.0138791 -0.0815539 
302 1 80.9057 -6.59113 23.9209 0.00984943 -0.0196533 0.00104596 
314 2 81.3209 -7.51543 23.2875 -0.0131332 -0.0054388 -0.0146441 
312 1 76.9637 -1.71725 26.8589 0.0108664 -0.00582032 0.00910052 
324 2 76.6212 -0.37882 26.6669 0.0667555 0.0324582 -0.111876 
322 2 76.6546 -4.28851 27.2401 0.0143463 0.0218596 -0.0551032 
310 1 76.5965 -4.11965 26.2195 0.00531925 0.000516628 -0.00313874 
299 1 75.4184 -4.94368 26.0322 -0.0072755 0.0303821 0.00464977 
321 2 76.6531 -2.50787 27.5055 0.0248121 0.0116103 0.0582852 
300 1 77.8842 -1.27578 25.9696 0.00861752 -0.000487885 0.00852859 
291 1 78.9482 -5.05703 25.1553 -0.0244015 0.0054285 0.00438434 
293 1 78.0921 -4.01472 25.6842 0.0146075 -0.031608 0.0284068 
289 1 80.4509 -4.65489 25.1001 -0.0148316 -0.0330414 0.0415345 
294 1 78.6792 -2.67342 25.995 0.0252728 -0.00779818 -0.00635804 
298 1 80.1475 -0.870082 26.0616 -0.0301514 -0.0161576 -0.0266132 
307 1 81.3806 -0.761545 26.3843 0.00464502 -0.00668629 -0.00323603 
292 1 79.7792 -2.12917 25.7774 -0.00858554 0.0127192 -0.00474461 
290 1 80.8317 -3.31392 25.2278 0.0124625 0.00031262 -0.0140597 
316 2 82.4785 -2.18549 27.6005 0.0110472 0.0492542 -0.0794066 
296 1 82.131 -2.9533 25.3951 0.0138304 0.0130606 0.00703785 
303 1 83.1161 -3.52838 24.4418 0.00319364 0.0105874 -0.0108663 
301 1 83.041 -4.95378 24.7821 -0.00874477 -0.00860379 0.00108228 
304 1 82.4914 -1.7304 26.5941 -0.00465776 0.00394998 -0.0138209 
319 2 83.5122 -1.42418 26.1207 0.0173823 -0.0837361 -0.0213165 
88 1 69.0337 -11.4131 14.7797 -0.00865979 -0.00562055 0.00130347 
323 2 77.7835 0.841502 24.6086 -0.0693159 0.0429387 -0.052778 
311 1 78.112 -0.162548 25.0905 0.0168345 -0.00446803 0.0142056 
308 1 79.4016 0.258388 25.5469 -0.00482889 -0.00887978 0.0023963 
320 2 79.9698 1.10114 25.1491 -0.0338188 -0.025765 0.0732322 
138 2 72.7551 9.50232 23.4266 0.074483 0.0775264 0.0701867 
393 2 75.3222 -10.4262 30.3674 -0.0472329 -0.0333422 -0.0241113 
495 2 76.5795 -8.46273 31.0581 0.0288241 0.0406581 0.00577174 
378 1 76.9068 -9.55587 31.3407 0.0141204 0.00409695 0.00949242 
369 1 77.8906 -9.83835 32.3393 0.0224103 0.0196056 -0.0114905 
363 1 77.9623 -11.1335 32.9896 -0.00103482 0.00608934 0.013118 
389 2 79.076 -7.98769 32.135 0.0166886 0.0660476 -0.0345187 
381 1 75.8052 -10.4511 31.2783 -0.0180332 -0.0013415 0.011689 
377 1 78.9883 -8.95528 32.5674 0.0222786 0.0101886 -0.0257093 
386 2 80.4392 -8.56408 34.2367 0.0107293 -0.00446975 0.0476223 
374 1 80.2427 -9.28941 33.3482 0.0120324 -0.0292785 -0.00472922 
361 1 79.2887 -11.5147 33.3145 -0.00934218 0.0296324 -0.00951442 
367 1 80.5315 -10.7498 33.3412 0.0295389 -0.0235664 0.0133264 
385 2 81.5675 -10.8588 33.2677 0.0430752 -0.0350676 -0.0395238 
215 2 73.004 8.44855 32.4542 0.0137255 -0.0788695 -0.0714299 
212 2 74.8302 6.6057 32.1862 -0.0580647 0.0660099 -0.0170782 
104 2 66.2763 -12.141 14.0913 -0.000387977 -0.00329689 0.0238836 