ITEM: TIMESTEP
1040000
ITEM: NUMBER OF ATOMS
576
ITEM: BOX BOUNDS pp pp pp
-1.2000000000000000e+01 8.4000000000000000e+01
-1.2000000000000000e+01 3.6000000000000000e+01
-1.2000000000000000e+01 3.6000000000000000e+01
ITEM: ATOMS id type x y z vx vy vz 
503 2 -0.335919 -6.95823 2.13925 0.0261252 0.0238671 0.0845313 
223 1 5.55079 6.55177 -2.08382 0.00154237 0.0130829 0.00796171 
249 2 6.89976 0.555933 -1.84793 -0.0358335 -0.0233998 -0.000716924 
245 2 5.81027 5.76156 -6.09923 -0.0706448 0.0584079 -0.0767525 
246 2 6.50908 2.2268 -3.91318 -0.053546 -0.0435472 0.0423528 
218 1 6.83856 6.34472 -0.408399 0.00615684 0.0138508 0.0116832 
217 1 6.75707 5.65878 -1.49323 -0.00548236 -0.0101742 0.00681714 
221 1 7.99337 3.64301 -1.12795 0.00220351 0.0199537 0.0047429 
219 1 7.2214 4.46543 -2.05239 0.0383664 -0.0135413 0.000402463 
225 1 7.23137 4.01265 -3.49186 0.0191319 0.000690887 0.00619755 
230 1 7.05665 4.60202 -4.51885 -0.0327161 0.00563423 -0.0173749 
233 1 6.72234 5.24818 -5.70781 -0.0118852 0.00188835 0.0273269 
234 1 6.74856 2.56943 -2.82718 -0.00668282 0.0055527 -0.0124281 
237 1 7.13658 1.5496 -1.96401 -0.0108574 0.001917 0.00822229 
227 1 8.01429 2.24678 -1.21557 -0.0112061 0.0092576 0.00581703 
357 2 9.94264 1.44683 -1.45596 0.0791294 -0.0441183 -0.0545288 
238 1 9.21171 1.56617 -0.666088 -0.000113379 -0.000729924 -0.015054 
242 2 7.40538 5.07227 -6.78398 -0.0932878 -0.0127843 0.0201742 
222 1 8.49594 4.43473 0.000845107 -0.0193552 0.011026 -0.0430061 
229 1 4.57695 7.44919 -1.55716 0.0347266 -0.0102567 0.0198202 
241 2 3.41859 7.28473 -1.81732 -0.0350425 -0.00546856 -0.119197 
231 1 5.13838 8.07502 -0.200312 0.0221521 -0.000614658 0.0225103 
243 2 4.84862 9.12295 0.206219 0.0708383 0.00893302 -0.0682935 
252 2 8.84598 0.781325 -0.286546 -0.0228984 0.074454 0.029831 
220 1 8.00989 5.68737 0.368876 -0.00518331 0.00240189 -0.0339598 
236 1 10.5377 4.91485 1.48927 -0.00842052 0.00575384 0.00413254 
388 2 11.3512 4.5975 2.42564 -0.0111035 -0.0344677 -0.0457077 
228 1 9.97588 3.88097 0.47504 -0.00989431 0.0342112 -0.00181959 
240 1 9.81178 2.57784 0.377196 0.00670398 -0.0186724 -0.00720491 
224 1 6.04498 7.32997 0.346705 0.00980467 -0.00778521 0.0178258 
244 2 6.28548 8.84882 1.8742 0.0633254 0.0023677 0.0172463 
235 1 7.89867 7.43478 2.0503 0.0175363 0.0229329 0.0117054 
239 1 10.0803 6.29705 1.62148 -0.00387527 0.00637719 0.0134632 
232 1 6.78205 7.93823 1.3486 0.00163002 -0.0152736 0.00127815 
226 1 8.61102 6.35249 1.53941 -0.00268671 0.0156616 0.00515164 
251 2 10.6567 7.08089 1.94315 0.00579415 -0.0118584 0.0423222 
247 2 8.25659 7.96884 2.99041 -0.00642025 0.0264353 0.0343835 
297 1 -5.22457 -9.79557 16.3364 0.0103864 0.00674989 0.0164846 
309 1 -6.22086 -9.33382 15.4958 0.0193207 -0.00270094 -0.0128878 
317 2 -6.0378 -8.69754 14.7049 -0.0208913 0.0808868 0.0870763 
572 2 -10.1183 10.917 22.6304 0.020394 -0.0387642 -2.81017e-05 
305 1 -4.5413 -11.1327 16.7702 -0.00800887 0.000692567 -0.000526559 
35 2 -4.74839 -12.0616 17.7543 0.00647168 -0.048261 0.0178393 
306 1 -0.313909 -11.2763 13.3755 0.00422712 -0.0158451 -0.00307716 
322 2 0.550047 -11.5338 12.6656 0.0202623 -0.0292494 -0.0188299 
532 2 -8.69671 5.80523 17.1521 -0.0243288 -0.0346812 -0.0345579 
576 2 -10.5194 5.41153 17.8698 -0.0263025 -0.0679269 -0.0341347 
550 1 -10.9402 5.75966 23.3038 0.0154035 0.0054745 0.0095102 
546 1 -8.16565 6.68342 22.5035 -0.00261851 0.0186743 -0.00129209 
421 2 -7.51861 4.89844 19.6728 -0.031751 0.0917576 -0.0122663 
566 2 -5.16361 6.69909 25.6888 -0.102022 -0.0637078 0.0633803 
98 2 -6.76581 0.202971 16.7321 -0.000643273 -0.019135 -0.0491044 
544 1 -9.62537 6.26173 23.4331 0.00444771 0.00266713 0.0285277 
545 1 -8.83675 6.82398 19.7234 -0.0278432 -0.00261885 -0.0099376 
573 2 -9.90194 6.85504 19.5579 0.0728898 -0.0331932 0.00498031 
551 1 -8.46467 6.7071 21.0778 -0.00194607 0.00320262 0.00706604 
552 1 -8.86193 10.0438 23.7688 -0.00836357 -0.0117939 0.0290301 
560 1 -8.8232 9.11515 24.3077 -0.00407326 0.0236433 0.00817501 
564 1 -8.29854 5.66566 19.133 -0.0193534 -0.0196149 -0.0270553 
563 1 -9.03528 11.1902 22.6131 -0.0114037 -0.0152182 -0.00416338 
562 1 -9.36011 5.17849 17.8916 -0.0163423 -0.0160048 -0.00526749 
135 2 1.51632 -4.69007 23.7934 0.0785929 0.0198821 0.0482635 
282 2 1.23037 -4.35441 23.9058 0.047136 -0.0566797 -0.0676867 
555 1 -11.3904 5.12747 26.0588 -0.0253959 -0.00343238 0.0234909 
569 2 -5.86296 6.36949 23.05 0.0592715 0.0732258 -0.0184699 
567 2 -10.0121 5.69906 28.3138 -0.00638739 -0.0873464 -0.0558295 
556 1 -11.6189 4.2004 25.0526 -0.00910157 -0.0160862 0.00114817 
548 1 -11.2422 5.98528 26.8062 -0.00318752 0.0259793 0.00539151 
542 1 -9.97404 6.57412 24.7031 -0.0122993 0.000824489 0.0278521 
561 1 -6.9093 6.88946 23.1421 0.00762535 0.00536838 -0.00827901 
553 1 -10.2026 6.71527 27.7225 -0.0204482 -0.0304581 -0.00855464 
541 1 -9.30238 7.34402 25.6743 0.0138802 0.0177237 -0.00445733 
547 1 -9.03458 7.07652 26.8046 -0.00130956 -0.0084475 -0.0235326 
554 1 -7.86332 7.56936 27.3515 0.00795941 -0.0240693 0.0135296 
557 1 -6.95268 7.26184 26.4659 0.0273894 -0.0118654 -0.0140348 
549 1 -6.1889 7.01835 25.4315 -0.0105179 0.0153507 0.00223888 
543 1 -8.41054 8.08652 24.8498 0.00175184 -0.0124739 -0.0324577 
432 2 -7.73205 8.18495 28.269 0.0130279 0.0789558 -0.0192877 
558 1 -7.16815 7.53616 24.3718 -0.019813 0.00286109 -0.0110214 
568 2 -10.6461 3.57406 24.8158 -0.0191558 0.0363034 0.0845436 
565 2 -10.8426 7.06381 28.3996 -0.0139283 -0.12016 0.0440125 
392 2 -9.12769 23.1994 5.61317 -0.0181074 0.0314262 0.0997208 
383 1 -9.72748 24.3121 5.62668 0.0128325 0.0138539 -0.00898085 
380 1 -9.04692 25.4468 5.23068 -0.010026 -0.0105269 0.00689649 
395 2 -8.0485 25.3907 5.13977 0.0544911 -0.0210419 -0.00774287 
370 1 -10.0347 26.4609 4.7537 -0.00777324 0.00583785 0.010539 
391 2 -8.88998 26.5639 2.86473 -0.0092664 -0.0338387 -0.0015945 
376 1 -9.72939 28.5704 3.84373 0.0119092 -0.00475317 -0.00504643 
364 1 -11.1937 26.8382 5.49901 0.0148869 0.00844813 0.0189716 
379 1 -9.19227 27.2496 3.71947 -0.018622 0.00824603 0.0161315 
368 1 -10.7098 29.1625 4.44833 -0.00359836 0.000767344 0.00195323 
490 1 -11.876 30.0779 11.3586 -0.0175332 -0.0493803 0.0142717 
372 1 -11.0833 24.785 6.32964 0.0241269 0.0198075 0.00727429 
375 1 -11.0829 30.6394 4.73906 -0.00159217 -0.0293177 0.00632984 
396 2 -10.9307 23.5998 8.27124 -0.0109557 -0.0524872 0.0661196 
473 1 -11.9845 31.0808 10.3721 -0.0049991 0.0070757 -0.0177096 
499 2 -9.2054 26.8803 11.3379 -0.0273811 0.0102427 -0.0312826 
148 1 -11.1544 22.7816 11.4374 -0.00135206 -0.00212639 0.0121745 
154 1 -11.872 22.0225 10.3367 0.00388409 -0.0241107 0.0265395 
166 1 -11.3398 21.5359 7.9169 0.0249475 0.018572 0.0118622 
168 1 -9.19578 19.7858 8.55722 -0.0397568 0.0128405 -0.0181782 
156 1 -10.2242 20.7541 8.58772 -0.00702107 -0.0204889 0.0177083 
180 2 -8.0818 19.4816 8.3372 -0.0408938 0.0548261 -0.0801912 
312 1 -0.638204 31.1754 8.55899 0.0385954 0.0232955 0.00329888 
373 1 -11.8893 31.162 5.73282 -0.000850001 -0.00316388 -0.0146399 
318 2 -9.23395 17.86 4.0574 0.128625 -0.0542412 -0.106495 
384 1 -11.5135 24.3323 7.64416 0.0214787 -0.00464328 0.0133684 
478 1 -11.4712 27.5679 11.3701 0.0339148 -0.019521 0.0114629 
320 2 -0.620632 33.2351 11.9436 0.00241046 -0.00763066 0.00951552 
472 1 -11.4456 28.7779 12.0068 0.0126559 -0.00175805 0.0121047 
311 1 -1.63662 31.4748 9.23358 -0.00704499 -0.00255419 0.015069 
324 2 -0.138068 31.1221 7.65475 0.0766236 -0.00673963 0.017462 
389 2 -8.58465 17.7064 3.82915 -0.0389248 0.0227029 -0.0523393 
298 1 -3.25208 32.0429 11.4764 0.00582781 0.0200472 -0.00247658 
307 1 -4.97227 31.9141 11.1527 0.031442 0.00267739 -0.0117174 
308 1 -2.44372 31.9502 10.355 -0.000971184 0.0160023 -0.00864063 
319 2 -5.83068 31.6069 10.4933 -0.0218902 -0.00207837 0.0433564 
362 1 -11.4878 28.1105 5.09137 0.0107416 -0.00166133 -0.0141574 
137 2 -11.827 31.8242 8.7891 -0.0139188 0.00550593 -0.000834776 
487 1 -10.2084 26.9772 11.8232 -0.0177216 0.000608683 -0.0260746 
174 2 -9.52167 23.3381 17.297 -0.00977534 0.0643128 0.0136156 
161 1 -8.90808 21.1138 16.0023 -0.0153313 0.0160206 0.02711 
153 1 -9.58637 22.5273 15.4909 0.0125994 9.18199e-05 -0.00651647 
147 1 -9.90892 22.799 14.0103 -0.00572115 -0.0137365 -0.0173195 
173 2 -8.8092 20.9793 17.11 -0.0884274 0.0472263 0.066228 
158 1 -8.72641 20.0812 14.8974 -0.0216931 0.0183316 0.00341183 
157 1 -9.58759 18.8366 12.9359 -0.0107554 0.00395421 0.00979761 
171 2 -9.06072 18.1368 12.9277 -0.113135 0.016289 0.0145273 
151 1 -9.22552 20.1291 13.5266 0.0182376 0.00840385 -0.0100221 
145 1 -9.59534 21.7681 13.1324 -0.0178162 0.0171383 0.002264 
540 2 2.58474 34.8372 12.8243 0.0450944 0.0270301 -0.0829712 
149 1 -10.6076 24.1062 13.3077 -0.0165986 0.000696324 -0.00388737 
162 1 -9.57454 23.7149 16.1905 0.00683226 -0.000260578 -0.014154 
165 1 -9.64983 25.0905 15.5013 -0.000209829 -0.00434931 -0.0215696 
155 1 -10.2869 25.2912 13.9611 0.0160798 -0.00686551 -0.00806272 
483 1 -9.27024 26.4451 15.8931 0.020283 0.00059166 -0.032291 
493 2 -8.1334 26.0539 15.4763 0.0667932 -0.0989435 -0.0322521 
481 1 -9.80893 27.7463 15.2631 0.00130139 0.0167693 -0.0243616 
484 1 -9.65679 26.5259 13.3796 0.00378172 0.0138013 0.00389947 
476 1 -10.2729 27.7771 14.0129 0.0148053 -0.0190055 0.0152924 
469 1 -10.8865 28.6046 15.9299 -0.00475587 0.0125072 -0.0169631 
479 1 -11.1733 30.133 13.6259 -0.00879555 0.00393222 0.0101639 
470 1 -10.9101 28.8169 13.3752 -0.0142772 -0.000751627 0.0110443 
471 1 -11.1357 30.0871 15.0687 0.0223868 0.0317975 -0.00372901 
385 2 -5.72551 22.4218 27.9712 0.0593395 0.0458152 0.0114032 
146 1 -10.5473 21.5937 12.1694 -0.0202228 0.00410181 -0.00546587 
477 1 -11.3508 31.5424 15.3694 -0.00664705 0.0380113 -0.00611026 
537 2 2.16176 35.5712 12.6487 0.0703034 0.0421106 -0.0132297 
301 1 -5.92383 34.1032 15.3246 0.0150783 -0.0265038 -0.0160489 
313 2 -7.35689 34.4975 13.1912 0.159297 0.0164417 -0.0311935 
303 1 -6.44025 34.3978 13.9076 0.000263289 -0.000166793 0.0275227 
316 2 -6.27442 35.539 14.1621 -0.0160678 0.0113466 0.00552 
30 2 -8.78663 28.5684 20.9069 -0.0397982 0.000739193 -0.119466 
474 1 -11.5583 30.9303 12.5229 0.0115287 0.00607349 -0.0124904 
315 2 -6.41108 33.7506 16.3662 -0.0334106 0.0757364 -0.00488682 
304 1 -5.61246 32.6894 12.0468 0.00194212 0.00810905 0.0139752 
491 1 -12.0142 32.2275 13.1266 -0.0185212 -0.00715083 -0.00342586 
488 1 -11.8915 32.198 14.5311 -0.0141037 0.00773008 0.00286472 
501 2 -10.8401 31.0389 16.4457 -0.0145854 -0.0501594 0.0720369 
302 1 -4.4227 35.7991 16.0523 -0.000463082 0.00447521 0.00392836 
570 2 -4.98597 22.9586 28.1578 0.0219547 -0.0190686 0.0332445 
323 2 0.478322 31.057 14.8122 0.0396699 0.000768694 -0.0317217 
296 1 -5.47824 33.2925 13.2554 0.0230334 0.0030638 0.00704679 
295 1 -4.56801 34.648 15.2528 -0.0168123 -0.0132684 -0.00306064 
300 1 0.360874 31.7438 13.9065 0.00637843 0.00986672 0.00436283 
321 2 1.26514 32.2364 13.4709 0.0409104 -0.0180686 -0.0317461 
290 1 -3.88622 33.4261 13.2386 -0.0141353 -0.00315591 -0.015777 
289 1 -3.61828 34.5417 14.0679 0.0251274 -0.0123506 0.0124716 
294 1 -1.45642 33.0124 12.5607 0.0165386 -0.00299003 -0.0107733 
291 1 -2.2729 34.9788 13.7676 0.0129284 -0.00920925 -0.0320988 
293 1 -0.84505 32.3997 13.6061 -0.00544323 4.97867e-05 -0.00580079 
292 1 -2.86738 32.7852 12.6685 -0.00503559 0.010217 0.00608465 
11 1 -10.9176 28.9405 21.4902 0.00672594 0.0437349 -0.00781783 
9 1 -11.4251 27.8606 19.4863 0.0233021 0.0110244 0.00309238 
159 1 -11.04 18.9939 12.7192 0.0136494 0.000909002 0.00938214 
177 2 -8.64079 12.2145 22.8129 -0.0157167 -0.0283314 0.0247167 
22 1 -10.9887 29.8906 22.7093 -0.032748 -0.00450499 -0.0125924 
26 2 -9.16964 27.9789 18.7006 -0.00954479 -0.112076 0.00456365 
18 1 -9.91763 28.0322 19.4638 -0.0291292 0.00233633 0.00723786 
21 1 -9.85135 28.5805 20.748 0.0189922 0.00568585 -0.00596126 
13 1 -11.6095 27.7961 16.4412 -0.00879735 -0.0120683 0.00249892 
150 1 -11.6126 23.9144 12.1777 0.00823236 0.00160967 -0.0166842 
310 1 -1.02391 35.4771 13.4968 0.015928 0.0220214 0.00391284 
5 1 -11.8833 28.5161 20.5282 0.00336604 8.02811e-06 0.0199532 
152 1 -11.3914 20.3012 12.1151 -0.0106484 -0.0120482 0.00299259 
169 2 -11.9014 17.9266 12.7714 0.0422138 -0.00716448 0.0806957 
132 1 35.078 -3.33185 -11.1632 0.0128618 -0.00884113 0.020175 
130 1 35.0858 -2.37155 -9.98479 -0.0415978 0.026517 0.00775462 
179 2 19.948 4.62405 1.28001 0.0095615 0.0380658 0.11795 
539 2 19.3402 4.12112 1.52186 0.11731 -0.0839859 -0.00376015 
352 2 19.9489 10.7656 1.33895 -0.0604671 -0.0633376 -0.00580041 
574 2 19.4964 11.2959 1.98234 -0.0166404 0.042812 0.0926006 
142 2 34.466 -1.42589 -9.91219 -0.0227592 0.00515101 0.0166791 
349 2 29.8169 9.20141 14.229 0.0258932 0.0189756 -0.0325259 
350 2 31.4212 7.21398 14.7388 0.00980096 -0.0347737 0.0370801 
136 2 23.1724 10.71 31.0104 -0.0777422 0.0563527 0.0387328 
337 1 30.7462 10.0568 14.5486 -0.00546013 -0.00392251 -0.00814697 
329 1 34.0883 10.2008 17.9936 -0.00785847 0.00172675 0.0128215 
330 1 34.2426 11.4095 17.575 0.00486117 -0.00849975 -0.003377 
327 1 33.0919 9.58922 17.1643 0.00569619 0.00981234 0.00737029 
325 1 32.3999 10.1474 16.1471 -0.000643765 0.021837 0.0119031 
333 1 32.8371 8.14382 17.2733 0.0228268 0.00478104 -0.00191153 
341 1 32.6046 7.26541 16.2316 0.00324711 0.027644 -0.024018 
331 1 31.4234 9.41217 15.5934 -0.0127235 0.00675635 0.0192238 
338 1 31.5945 7.87232 15.4237 0.0442228 -0.0138911 0.00369124 
326 1 32.4569 11.6748 16.0574 -0.00904945 -0.0107574 0.0191304 
354 2 33.7505 6.43836 18.493 -0.0283967 0.00413313 -0.0814123 
353 2 33.0872 6.25388 16.1744 -0.0148427 -0.0103388 -0.0431619 
339 1 30.9522 11.4322 14.3056 0.00937664 -0.00346582 0.00270596 
342 1 33.5953 7.56331 18.4917 -0.0199339 -0.00744085 -0.0124368 
345 1 34.377 7.8975 19.4573 -0.0033176 0.00620188 -0.00542647 
335 1 34.766 9.34529 19.1996 0.00398624 0.0230082 0.0200543 
216 2 34.7462 7.28501 20.0965 -0.00264826 0.00148973 0.0383601 
398 1 17.8459 11.625 30.1849 0.0489233 0.030892 -0.0020873 
17 1 19.3352 11.6479 30.3817 0.0174447 -0.00225989 0.0101966 
346 1 35.8013 10.0549 20.0184 -0.0104388 -0.0291986 0.03472 
250 2 18.9737 5.8784 31.2118 -0.0744227 0.02734 -0.0435552 
407 1 22.2078 11.1757 30.9795 -0.0197959 0.0159243 0.030852 
408 1 18.6097 8.3211 30.4613 -0.014871 -0.00478377 -0.0113809 
425 2 15.3342 9.73517 30.1616 -0.0151069 0.0434828 0.0679221 
426 2 16.6322 7.62637 31.0333 0.00432348 -0.0691156 -0.111245 
415 1 17.4993 10.2098 29.6225 0.00187332 0.020505 0.0293634 
402 1 17.0769 8.39687 30.7282 0.00224847 0.000104432 -0.00549079 
400 1 16.3397 9.48437 30.1688 -0.0260418 -0.0177386 -0.0247763 
420 1 20.7503 7.67167 31.5514 0.0138637 0.00388802 0.00588626 
418 1 19.4584 6.98802 31.078 0.0314541 0.017047 -0.0209876 
430 2 20.0291 9.14496 32.7312 0.0293872 0.011627 0.0598957 
401 1 18.8226 9.48681 29.7325 -0.00467829 -0.0165117 0.013209 
399 1 19.9755 10.3188 30.0879 0.0100235 0.00802318 -0.000341554 
405 1 20.8109 9.14601 31.8081 0.0217219 0.00348368 0.0111266 
414 1 21.288 10.0704 30.722 0.00402963 0.00803808 -0.0083818 
351 2 30.6217 11.3318 13.2387 -0.0311715 -0.0070818 0.0394577 
283 2 29.8892 19.045 6.26635 -0.0742507 0.0230025 -0.0124003 
278 2 30.2562 18.2368 6.71134 0.00434667 0.0124895 -0.0567374 
343 1 32.2939 14.3988 16.5031 -0.00964709 -0.00206469 -0.0191031 
334 1 33.6544 13.655 16.7852 -0.0104747 0.00860411 0.00258396 
344 1 34.7848 14.3853 17.332 -0.00348659 -0.0110581 -0.00628332 
68 2 32.8546 15.3497 16.7159 -0.106754 0.105958 0.0483154 
340 1 31.7104 14.0624 15.2189 0.0145439 -0.00685059 -0.01184 
356 2 35.1646 15.4787 17.32 -0.0022378 -0.0238235 -0.0108955 
417 1 22.2066 12.3486 30.152 0.00426641 0.00295145 -0.0106151 
328 1 33.2837 12.238 16.8797 -0.0139891 -0.0211459 0.00544036 
423 2 18.6021 14.0985 31.9865 -0.0717516 -0.00705076 -0.0294002 
347 1 35.4957 13.3695 17.946 0.000167516 -0.01005 0.000140127 
336 1 35.19 12.0299 18.365 0.0172642 0.00220815 0.0121764 
428 2 13.3419 14.8305 29.0416 0.0518797 0.0661291 0.182426 
406 1 14.6161 13.3033 28.9064 -0.00185591 0.000917345 0.00699248 
412 1 15.4404 12.7446 29.5149 0.0120333 -0.00227351 -0.0128325 
416 1 14.1626 14.4185 28.2527 -0.0180454 -0.0199087 0.027841 
404 1 16.9094 12.5661 30.0871 0.0296906 0.00428646 -0.00442618 
419 1 14.6682 14.8157 26.9985 0.00101676 -0.0398884 0.00400598 
431 2 14.3773 14.1818 25.9757 0.0611594 -0.027208 -0.0482552 
403 1 21.102 13.2445 29.9959 -0.00286301 0.00596941 -0.0126854 
424 2 18.5208 15.3385 30.3251 -0.0506473 -0.0229966 0.0239375 
397 1 19.7888 13.0051 30.3651 0.0279419 0.00202645 0.0169 
422 2 22.3905 15.6474 27.1231 -0.0754011 0.0175447 0.045804 
14 1 22.2519 15.189 27.9967 0.00336794 0.0132017 0.0277422 
409 1 18.881 14.3755 30.7268 -0.0111728 -0.00882754 0.0240089 
413 1 21.4667 14.4591 28.8508 -0.000919904 0.0105788 0.00692097 
410 1 21.3912 14.3505 27.5666 0.00926593 -0.0527004 0.0399469 
29 2 20.8975 13.6275 26.9958 0.0685946 0.0370493 0.0344196 
466 2 22.9251 16.6691 28.7975 0.0478316 -0.0522163 0.0440745 
105 2 23.0907 16.8086 27.8 -0.0366045 -0.070558 0.0608228 
411 1 17.472 13.8839 30.265 -0.00860508 -0.00298674 -0.0150096 
427 2 16.7129 14.7003 30.4265 0.0358906 0.0348765 -0.0173766 
394 2 14.1504 23.583 16.3556 -0.129693 0.0373402 0.116159 
144 2 14.6159 23.8126 16.9503 0.0283275 -0.0169959 -0.0140963 
429 2 23.2619 12.4315 30.3798 -0.0134318 -0.0255765 -0.0311229 
332 1 31.6748 12.4956 15.1284 -0.0149156 0.00921178 -0.0193572 
314 2 32.9012 34.7977 15.7845 -0.0535399 -0.0432287 -0.0609111 
33 2 13.1513 25.9078 30.5768 0.0428928 0.0569018 0.147081 
287 2 13.2056 25.2539 31.272 0.0603257 -0.00561905 0.022984 
143 2 36.3021 -5.7516 -11.1562 -0.0623051 -0.0729527 -0.0134598 
128 1 38.3832 -5.30263 -10.2503 0.00470016 0.00299282 0.00571404 
120 1 36.5347 -3.93984 -11.2603 0.00614836 -0.0136359 0.0243803 
118 1 39.1789 -5.17415 -11.3292 -0.00646659 0.00212715 0.00234677 
113 1 37.4959 -1.94568 -10.4611 -0.0189084 -0.00997464 -0.00372352 
112 1 38.903 -3.63988 -11.5596 -0.0193748 -0.0137359 -0.0037948 
139 2 40.4299 0.437825 -11.0191 -0.0446745 0.0951675 0.00270828 
119 1 36.2636 -1.29625 -10.1219 -0.00665626 0.00455644 0.0150502 
114 1 37.7081 -3.06479 -11.3929 -0.0272212 0.00529607 -0.0293912 
127 1 40.4256 -5.17039 -11.9238 -0.00608277 0.00837426 -0.0358028 
110 1 40.0656 -2.73359 -11.6091 -0.00971918 -0.00288358 -0.0242623 
109 1 39.6106 -1.4032 -11.2828 -0.0189583 0.00629146 -0.00801674 
111 1 38.3186 -1.07128 -11.1953 0.0129005 0.0091669 -0.0116132 
527 1 57.5058 10.3554 6.14468 -0.0114713 -0.0258622 -0.0384889 
115 1 40.5632 -0.323844 -11.6292 -0.0162667 -0.0184006 -0.00891869 
124 1 41.5122 -4.49358 -11.9244 0.0115603 -0.00745744 -0.0219612 
519 1 59.6379 8.335 11.1702 -0.0120793 -0.022331 0.0129672 
524 1 58.3457 11.2517 6.84645 -0.0261467 -0.0050365 -0.00268671 
517 1 58.883 7.46133 11.9631 -0.00565286 0.025013 0.00846761 
523 1 58.5056 11.4713 9.51905 -0.00842391 0.00351867 -0.0106193 
141 2 35.8526 0.63862 -8.70064 -0.104384 -0.054993 0.0260273 
126 1 36.6983 0.761585 -10.7075 -0.0377951 -0.00989941 0.00484661 
129 1 36.0869 0.0975868 -9.62711 -0.00971994 -0.010638 0.00339449 
138 2 36.2438 1.78509 -10.5967 -0.108142 0.0146839 -0.069307 
117 1 37.7592 0.19588 -11.8025 -0.0225464 0.00385124 0.0219993 
210 2 42.1736 5.80828 8.2817 0.00601502 0.00782434 -0.0150555 
538 2 54.3502 10.5019 5.50622 0.0599683 0.0542821 0.02766 
497 2 56.684 1.19237 10.916 0.0391312 0.0382346 -0.00822422 
518 1 57.5105 5.58636 11.7308 0.0152497 -0.000862523 -0.00361979 
284 2 41.3712 6.28113 8.24748 0.042003 -0.14835 0.0155242 
513 1 55.3835 5.2032 10.0047 -0.0138777 -0.00176384 0.0172692 
533 2 55.015 4.32427 10.6824 0.0149291 -0.0658374 0.0730072 
521 1 56.5158 5.23544 10.9396 0.00757433 -0.00228115 -0.00328995 
534 2 53.135 6.41429 7.77991 -0.0317843 -0.048371 -0.0265411 
506 1 58.1008 8.81958 9.53937 -0.0123086 0.0206766 -0.0231803 
515 1 54.1395 8.10198 7.88122 -0.00322367 -0.0156541 -0.00129753 
512 1 59.1987 9.47148 10.3947 0.0108081 -0.00309026 -0.0010608 
510 1 56.3895 9.46366 7.68978 0.010505 -0.0101826 -0.00278683 
509 1 55.5122 8.36204 8.24417 0.0269707 0.0169567 0.0113083 
505 1 57.2715 7.82647 10.0171 0.0219506 -0.0366573 -0.0037583 
508 1 57.6365 9.38133 8.18797 0.0126403 0.00593223 -0.0293846 
528 1 54.9182 9.64053 5.73976 0.00191736 0.00297552 0.00568187 
514 1 58.4624 10.6803 8.33321 -0.00670052 -0.0142486 0.0285096 
511 1 57.8678 6.97961 11.0733 -0.0304786 0.0106278 -0.0249013 
516 1 56.2804 9.74125 6.24382 0.0019583 -0.0114162 0.0108487 
507 1 55.9191 7.5118 9.27022 0.000480759 -0.0159203 0.000611444 
522 1 55.0249 6.38805 9.05364 0.0101248 0.00348711 0.000983328 
525 1 54.0798 6.73996 8.15675 -0.038403 -0.00820944 0.000684423 
526 1 54.0146 8.95436 6.60527 -0.0231434 -0.00159891 -0.0297525 
131 1 37.105 -5.21644 -10.9225 -0.00562484 0.00214393 0.0187808 
140 2 38.2904 -4.60226 -9.43349 0.0590536 0.0362492 -0.0086927 
520 1 59.4111 10.7696 10.511 0.01752 0.0242507 0.00676641 
199 1 41.5104 -4.89053 17.9681 0.0220374 0.00576325 -0.00632719 
196 1 41.1156 -3.78266 17.2792 -0.0122689 -0.00595162 0.00733029 
188 1 41.7586 -2.61314 17.3682 -0.0259273 -0.0127092 -0.00147268 
195 1 41.4001 -1.36976 16.6115 -0.00389214 -0.025915 0.00935315 
211 2 40.7144 -5.75722 17.2869 -0.0669215 0.00745293 -0.008136 
182 1 43.0698 -2.46921 18.3082 0.0221181 -0.0151996 0.00199235 
181 1 43.8078 -1.34217 18.4259 0.017734 -0.0284576 0.00376611 
133 2 47.891 -0.452008 17.699 -0.0335502 -0.00183762 0.0710891 
207 2 40.7762 -1.3222 15.6813 -0.0617996 -0.00165837 -0.00295905 
208 2 41.8656 0.631044 15.6779 0.0245252 -0.0681883 -0.0442047 
197 1 45.7617 0.609136 17.6832 -0.0117869 -0.0318276 0.00959529 
209 2 46.7247 1.2556 17.71 0.0502732 0.0788219 0.000342742 
206 2 44.4022 1.51765 16.1971 0.0706774 -0.0109372 0.0934545 
194 1 44.6892 0.78404 16.8571 -0.0138859 -0.00293945 -0.0112332 
187 1 43.5722 -0.217783 17.1749 0.0128681 0.00239289 -0.00489199 
193 1 42.1897 -0.233138 16.4293 -0.0103469 0.00266966 -0.0221172 
123 1 42.1599 -2.06435 35.0894 0.0232766 -0.0256084 -0.0154232 
215 2 42.5449 -6.49734 20.0721 0.00872241 -0.000177124 0.0879822 
204 1 43.8368 -2.97059 23.3007 -1.4587e-05 -0.00120455 -0.023966 
200 1 43.3678 -5.78139 19.7384 0.000634261 0.000264811 0.00683024 
190 1 42.8635 -5.04284 18.5829 0.00896758 -0.0109579 0.00368725 
183 1 45.0786 -1.53492 18.9588 0.0296549 -0.00702379 0.0248737 
189 1 45.9371 -0.509327 18.6687 -0.0245851 0.00201298 0.00759633 
192 1 44.2376 -4.81033 21.9137 0.00736211 -0.037556 0.0073075 
203 1 44.3401 -5.10962 20.5591 -0.0096509 0.0239622 0.00707406 
184 1 43.369 -3.75298 18.7641 0.0109 -0.0108341 0.0201107 
186 1 44.4867 -4.02943 19.4066 0.0101786 -0.00095237 0.0209318 
202 1 43.9201 -4.34082 22.9172 0.0155173 0.00127283 -0.00110131 
185 1 45.5065 -3.05008 19.2338 0.000413592 0.00131151 0.00192592 
191 1 46.8824 -3.01045 19.467 0.00400192 -0.00342472 -0.0101701 
213 2 47.137 -3.76909 20.2091 0.0256209 0.00389974 -0.0463135 
198 1 47.2834 -1.10393 18.4066 0.0325179 0.0306288 -0.0185528 
201 1 47.9756 -1.98663 19.2128 -0.00925506 0.0199778 -0.00167748 
214 2 49.0186 -2.15607 19.639 0.063233 -0.0708015 0.0405245 
348 1 36.0331 11.2936 19.3364 -0.024569 -0.00822061 0.000647408 
122 1 37.4513 1.40591 33.811 -0.0155289 0.00904891 0.00514813 
358 2 36.3531 9.18004 20.2235 -0.0386399 0.0507409 -0.000790281 
212 2 43.8482 -2.31753 22.5461 0.0350423 -0.0216778 0.0073917 
496 2 43.1887 -2.35759 34.5498 -0.0521516 0.00865092 -0.0199973 
125 1 37.5573 0.74052 35.0774 0.000744519 -0.00370461 -0.00753835 
121 1 41.6478 -0.82161 35.4468 -0.00480463 0.0158208 0.0132798 
80 1 58.921 -1.71878 34.7271 0.0101702 0.000828566 -0.0206258 
530 2 57.315 5.64347 12.9218 -0.0346743 -0.0730636 -0.0215778 
116 1 41.3177 -3.10067 35.8111 -0.0104475 0.0125702 0.00984254 
108 2 58.4166 -3.09933 31.526 -0.0543247 0.081377 0.0699753 
475 1 59.1848 -2.58758 32.1893 0.00312906 -0.0148585 -0.0503972 
87 1 58.8847 -2.26337 33.5439 0.0130581 -0.00838448 0.00461856 
134 2 38.4045 1.34095 33.3054 -0.00322016 -0.077636 -0.00566573 
529 2 59.737 6.64603 12.003 -0.0951799 -0.0671205 0.00839096 
85 1 59.0512 -1.05276 35.7206 -0.0180683 -0.023494 -0.000166761 
99 2 59.7192 -1.88662 31.4562 0.037521 -0.0820864 0.0840555 
205 2 42.362 -4.87237 35.8245 -0.0264812 -0.0707356 -0.0301937 
498 2 59.9577 -4.29006 33.6852 0.0387267 0.0630444 -0.0978264 
100 2 59.1845 -0.0497079 35.3296 -0.0480122 0.0337847 -0.114106 
60 1 46.8323 17.9561 -10.6923 0.0017857 0.0101643 0.0336455 
48 1 47.6954 17.8408 -11.4805 0.00338694 -0.0148629 -0.010902 
54 1 45.6001 18.3143 -10.0743 -0.0121031 0.00970764 0.00824137 
69 2 45.1751 17.8163 -9.21808 0.0794249 -0.00723609 -0.020148 
66 2 42.8956 18.9931 -9.52708 -0.00877268 0.0158322 0.0218172 
47 1 42.7268 20.1338 -11.3318 0.00494051 -0.0100995 -0.012126 
57 1 43.5051 19.4602 -10.3635 -0.00235388 0.00499826 -0.00119819 
58 1 44.9663 19.6008 -10.5919 -0.00659074 -0.0126225 3.90111e-05 
536 2 58.617 12.5065 9.45042 -0.0529026 0.0715763 -0.0323911 
61 2 42.1127 22.353 -11.9419 0.0576178 0.0195398 -0.0930159 
64 2 59.5319 27.7933 13.9904 0.0336922 -0.0445338 0.116989 
170 2 59.1083 27.8963 13.1949 0.051158 0.0172245 -0.0915933 
62 2 40.9351 23.2375 34.6285 -0.10398 -0.0217303 0.0654306 
359 2 36.4261 13.8536 18.4937 0.0120507 0.00159347 0.000520898 
63 2 47.8649 24.2048 31.7308 -0.00453163 0.122475 -0.0234465 
65 2 42.4006 20.3203 34.3866 0.0213883 0.00552672 -0.0648366 
39 1 44.3865 20.6117 35.1174 -0.00600457 0.00258209 -0.0153606 
49 1 45.1439 23.6024 33.5318 -0.00267979 0.0345506 -0.00290007 
50 1 43.0283 22.7757 34.4138 0.0250921 -0.0162796 0.00741315 
40 1 46.9086 20.5327 34.1711 -0.0236489 0.000143038 -0.0107292 
38 1 46.0833 21.6241 33.5811 -0.00514208 -0.027596 0.0153359 
42 1 46.5157 19.6317 35.3054 0.0283555 -0.02137 0.00631522 
37 1 44.8184 20.9912 33.7371 0.00419193 0.00558463 0.00183255 
43 1 44.0861 22.4305 33.7124 -0.0167858 0.0143226 0.0107875 
51 1 47.6321 23.3256 32.4858 0.011842 0.0252176 -0.0124337 
44 1 46.4743 23.1168 33.3976 -0.00353957 -0.00638487 -0.00376124 
56 1 47.7178 18.6837 35.4408 -0.0183094 0.00281856 0.00197495 
41 1 45.3259 20.0477 36.0038 -0.0223476 -0.00359537 0.0278044 
45 1 42.9243 20.3367 35.3907 0.0385811 0.0149318 0.00606342 
72 2 49.8064 18.5562 34.5653 -0.0125214 0.0753851 -0.0630175 
55 1 49.1873 21.3825 33.2905 0.0173824 0.0026276 -0.0229188 
52 1 48.6497 22.474 33.0417 0.00301599 0.000172637 0.000899939 
46 1 48.2236 20.323 33.7696 0.00352161 0.00303681 -0.0139873 
59 1 48.7237 19.0301 34.3831 0.00212063 -0.0127187 0.0123748 
67 2 50.1993 21.3569 33.208 0.084091 -0.0632296 -0.0120281 
53 1 42.042 23.0325 35.233 -0.019759 -0.0187898 -0.0119322 
360 2 36.2889 12.0795 19.9831 0.0277837 -0.0770459 0.0160077 
104 2 67.6927 -8.22601 -2.35032 -0.0159681 0.0613695 0.0810878 
92 1 68.6111 -8.51314 -1.64685 0.0112436 -0.00183666 0.0229874 
82 1 69.6618 -9.58263 -1.92131 -0.0157642 -0.00547349 -0.00591534 
76 1 70.0228 -9.94532 -0.524198 -0.023715 -0.000703989 -0.0154256 
91 1 69.7171 -9.31254 -3.43873 0.0370389 0.00853411 0.0182948 
74 1 70.9238 -11.1785 -0.468118 0.000812038 0.0111728 -0.00362493 
531 2 60.8234 8.22477 11.0426 -0.0564591 0.0718712 -0.0611189 
88 1 70.7837 -8.79271 -4.04924 -0.00967119 0.0153938 0.00587326 
103 2 71.9104 -8.7113 -3.92865 0.0460266 -0.0529157 -0.0519641 
86 1 74.1579 -11.471 1.01634 0.00454129 0.00249742 -0.0003152 
107 2 67.2618 -6.87651 -0.682474 0.0512309 -0.0478065 -0.0707261 
95 1 68.0582 -7.61782 -0.638036 0.00577645 0.0116785 -0.000757408 
84 1 68.8879 -7.7493 0.499622 0.0151176 -0.00457213 -0.0196923 
96 1 68.6013 -6.93518 1.93692 -0.00298578 0.0140471 -0.0209439 
78 1 69.9171 -8.80629 0.484226 -0.00765964 -0.000921043 0.024886 
94 1 69.7245 -6.88558 2.93451 -0.0315509 -0.007239 0.00276173 
83 1 70.7811 -8.05813 2.62704 -0.0236444 0.012913 -0.0103221 
102 2 69.9491 -5.86901 3.62297 -0.0685049 -0.11837 0.0921903 
77 1 70.7384 -9.14616 1.67143 -0.0195461 0.00101857 0.00514661 
106 2 68.1637 -5.99246 2.18615 -0.0177858 0.0103611 -0.0225943 
355 2 71.436 -11.8026 -1.34766 0.0241857 0.0250668 0.0861496 
73 1 71.8692 -11.0606 0.60952 -0.0364606 -0.0232535 -0.0169809 
75 1 71.9272 -10.019 1.77511 -0.0154646 0.0251226 -0.0070482 
81 1 73.209 -9.633 2.43919 -0.00365429 -0.0244844 -0.00944981 
90 1 73.2273 -8.20785 3.44055 0.0221091 0.001298 0.00973882 
93 1 71.8704 -8.1732 3.33531 0.0041493 -0.0240893 -0.00539125 
89 1 74.0901 -10.519 2.07563 0.00386254 0.0151144 0.00908309 
263 1 74.8988 6.60176 6.43333 -0.0122623 0.00302904 -0.00597813 
257 1 76.0714 6.08355 5.81275 0.00268427 -0.00688289 0.0148407 
254 1 78.6005 5.56224 4.58618 -0.011084 0.015845 0.00318931 
279 2 81.9128 4.1741 4.6879 0.162864 -0.0341173 -0.10013 
267 1 80.9881 4.71359 5.21357 -0.0031234 0.0116282 0.0198982 
260 1 79.8664 5.18289 4.09439 -0.00283297 -0.0111508 -0.0214056 
286 2 73.4303 8.51621 6.29842 -0.0222341 0.086646 0.00820088 
274 1 74.3325 7.75132 5.97882 0.00859739 -0.0255658 -0.0141734 
264 1 75.7435 7.74148 3.90334 0.00506146 -0.0104161 0.0303284 
288 2 73.7673 8.76179 3.97822 -0.0158957 0.0880547 -0.0586418 
276 1 74.4118 8.15516 4.4772 -0.00566331 0.00809558 0.0200316 
258 1 76.5762 7.00425 4.77337 0.0114562 0.0146 -0.000847206 
275 1 76.1755 8.51124 2.58144 -0.0139731 -0.017914 -0.0144979 
271 1 79.5782 6.62436 2.30987 0.00621501 -0.00156527 -0.00860994 
272 1 77.5943 8.34706 2.63334 -0.00261389 -0.00839756 -0.0122209 
280 2 80.115 7.32813 1.4817 -0.0809093 0.0745736 0.0343315 
262 1 78.2784 7.00559 2.88131 -0.00482448 -0.00255187 -0.0221202 
268 1 80.294 5.85488 2.95371 0.00273845 -0.0408408 -0.0315127 
256 1 77.7574 6.57254 4.15939 -0.023457 0.0215846 -0.00514716 
575 2 73.1441 5.99995 7.62402 0.0805885 0.0773083 0.0233432 
273 1 74.1668 5.97474 7.51536 0.0208714 0.0227655 0.00115089 
270 1 75.3475 5.81946 8.32939 0.00784567 0.0343492 -0.00785949 
285 2 75.73 5.37779 9.29549 0.0568625 -0.0265482 0.0186728 
261 1 76.7496 5.53205 7.80506 0.00299711 0.00428024 0.0322995 
255 1 77.2582 5.8836 6.44875 0.01941 0.00692572 -0.0130748 