ITEM: TIMESTEP
350000
ITEM: NUMBER OF ATOMS
576
ITEM: BOX BOUNDS pp pp pp
-1.2000000000000000e+01 8.4000000000000000e+01
-1.2000000000000000e+01 3.6000000000000000e+01
-1.2000000000000000e+01 3.6000000000000000e+01
ITEM: ATOMS id type x y z vx vy vz 
459 2 -9.25928 -0.495159 -10.8145 -0.0237225 0.046292 0.0189876 
451 1 -9.21267 4.01145 -10.3413 -0.00931575 0.015968 -0.0258965 
442 1 -8.93845 4.37527 -11.6937 0.00446429 -0.0129165 0.011603 
448 1 -9.93268 2.73239 -10.194 -0.017115 -0.0439335 -0.0157763 
440 1 -10.1319 1.80189 -11.3641 0.000401264 -0.00706161 0.0144964 
460 2 -9.86949 2.38462 -9.06069 -0.0532059 0.0402667 0.0138628 
463 2 -9.24308 4.71603 -9.55983 -0.0246637 0.014148 -0.0463506 
447 1 -9.74643 0.43988 -11.1667 0.0138349 0.00380989 0.00412126 
410 1 6.66907 -10.9973 3.80305 -0.0173801 -0.0225706 -0.00767879 
464 2 -8.25578 6.59752 -11.6771 -0.0167016 -0.0521364 -0.0253069 
428 2 -0.54964 -6.86484 1.53574 0.0594474 -0.095166 0.0464624 
431 2 -1.62324 -8.77937 1.53838 0.0163665 0.0339785 0.0724125 
420 1 -0.685343 -11.252 2.42336 -0.00753895 -0.0170446 -0.0133004 
419 1 -0.47783 -8.99506 1.82072 -0.0159662 -0.00435879 -0.0166392 
412 1 3.38782 -6.34109 2.64171 -0.0177106 -0.0144254 0.0193173 
415 1 2.29632 -6.42063 1.69624 -0.011658 -0.000494559 -0.000599291 
416 1 0.122905 -7.67542 1.68404 0.0229068 0.00817781 -0.0243508 
406 1 1.55079 -7.70262 2.02293 0.00662029 -4.59931e-05 -0.013317 
400 1 2.30671 -8.95987 2.24225 -0.00734763 -0.0103114 0.017739 
408 1 0.113231 -10.0507 2.56922 -0.0207467 -0.00250762 0.0151353 
402 1 1.69667 -10.3222 2.45524 -0.0220997 0.0247996 -0.0188668 
398 1 3.57691 -8.57605 2.60545 -0.00591855 -0.0279751 -0.0103524 
423 2 5.59857 -6.38024 4.34296 0.0183627 0.0151017 0.0359382 
401 1 2.4312 -11.1929 3.36422 0.0146933 -0.000377826 0.0209374 
397 1 4.3832 -9.71075 3.02607 -0.0153811 -0.00622128 -0.0300992 
399 1 3.83155 -11.0354 2.87645 0.00975986 -0.00855847 -0.0386208 
404 1 4.27795 -7.30221 2.73665 -0.00782535 0.00550472 0.0103574 
411 1 5.38577 -7.18976 3.59928 0.0160805 -0.00706192 -0.00660654 
427 2 1.38693 -5.78305 1.43635 0.0887317 -0.0610304 -0.0726092 
424 2 3.31352 -5.29933 2.94182 0.0286361 -0.100916 -0.0287795 
409 1 6.15784 -8.29505 3.83012 0.00257732 -0.0135654 -0.0104863 
403 1 5.97349 -9.84333 3.51535 -0.0102922 -0.00367596 0.00691104 
422 2 7.54889 -11.1461 4.44377 0.0330629 -0.0198098 0.00646629 
457 2 -10.8247 -1.18368 -11.8043 -0.103356 0.000224286 -0.00535365 
465 2 -10.3354 3.74015 28.9821 -0.0317158 -0.0732 -0.00798899 
537 2 7.57536 8.03839 13.7722 -0.132946 -0.0149002 -0.0318009 
452 1 -8.91564 5.77928 35.8206 0.0155852 -0.025927 0.0083186 
467 2 -7.6697 7.11198 34.332 -0.00791846 0.0632961 0.0117633 
441 1 -10.7714 1.18309 31.7023 -0.00514123 0.00088989 -0.0325035 
437 1 -9.47741 3.11578 32.5106 -0.0109585 -0.0193324 0.0167061 
435 1 -10.3697 2.112 32.8802 0.0225962 0.0212009 -0.00323208 
450 1 -11.1237 2.34148 30.4885 -0.0122245 -0.016649 -0.0114187 
439 1 -10.323 -0.182678 34.3159 0.00985885 0.0194039 0.00506636 
433 1 -10.2107 1.37939 34.2226 -0.00810306 -0.0110817 -0.0222509 
449 1 -11.5947 0.0456325 32.1103 0.0281912 0.0136163 -0.0124365 
453 1 -10.372 3.47718 30.0742 -0.00948476 -0.0145753 -0.0165789 
443 1 -9.57209 3.81277 31.259 -0.0129307 -0.00636617 -0.0189332 
438 1 -9.1651 3.87444 33.8565 -0.00692184 0.0116277 0.00992045 
434 1 -10.0714 2.26726 35.2918 0.024201 0.0149646 0.00990981 
454 1 -9.24344 5.14761 31.0814 0.0159584 -0.0159315 -0.00908226 
444 1 -8.52458 5.15238 33.3828 -0.0137817 -0.0238848 -0.0227796 
466 2 -9.59545 5.62839 30.1884 -0.0360242 0.0264517 0.0512571 
436 1 -9.10318 3.4795 35.1782 0.00256988 -0.025907 0.00811371 
446 1 -10.7779 -0.767932 33.0526 0.00423978 -0.00235354 0.00532138 
468 2 -7.40127 6.25519 31.6433 0.0246522 -0.0307742 -0.085515 
456 1 -8.10967 5.72744 32.0198 -0.00537949 0.0103729 -0.0231982 
455 1 -8.27809 6.10119 34.5622 0.0118312 0.00687383 -0.0135017 
445 1 -10.1186 -0.612108 35.7778 0.0121812 0.00730511 0.0151962 
540 2 7.99384 8.5567 13.0029 -0.00638844 0.0137124 -0.0938474 
458 2 -11.2874 -1.66411 33.1986 -0.0578722 0.0748867 0.0534443 
129 1 -9.83397 17.6209 -11.0483 -0.0137963 0.00995819 0.00515697 
117 1 -9.35249 17.4916 -8.92148 0.0103622 0.00483785 -0.00933136 
119 1 -11.0484 16.9294 -11.1241 -0.0207266 -0.0181934 -0.0109007 
125 1 -8.08273 17.5908 -8.26142 0.00113953 0.0314662 0.00808122 
122 1 -8.12561 16.7578 -7.20985 0.010584 0.0134683 0.00114786 
115 1 -9.23634 15.8921 -6.7279 0.0188507 -0.026399 0.009422 
111 1 -10.1743 16.2888 -8.77691 0.011101 -0.0175883 0.0211408 
109 1 -10.0242 15.2693 -7.71296 -0.00668103 0.00420559 0.00960321 
113 1 -11.0661 16.1077 -9.88746 -0.0342994 -0.0209784 0.00586981 
126 1 -9.78663 18.5655 -9.88807 -0.00134084 -0.0211095 0.0303453 
138 2 -10.8779 18.8517 -9.79819 0.0986313 0.0307902 -0.0550823 
116 1 -10.8513 13.5271 -6.41931 -0.00510829 -0.00683566 -0.0141309 
425 2 6.57969 34.8648 2.81406 -0.060336 -0.000371167 0.00807427 
110 1 -10.6456 14.1381 -7.86224 0.00272132 -0.00418825 -0.0016383 
429 2 1.1814 35.2793 5.01824 -0.0939981 0.0322937 -0.110276 
407 1 1.6715 35.7554 3.9583 -0.0326491 0.0177852 -0.0134182 
191 1 11.9198 18.509 -11.2891 0.0064252 -0.00396783 -0.00960456 
112 1 -11.7301 14.182 -8.70661 -0.000494461 0.0240168 -0.00498729 
114 1 -11.7122 14.7849 -10.1678 0.00607672 -0.0041747 -0.00858461 
413 1 5.93402 35.8979 3.08023 0.009817 -0.00586797 0.0179801 
182 1 11.1582 17.648 -7.08188 -0.00144058 0.00708945 0.00806178 
137 2 -7.30586 18.2502 -8.77628 0.0157823 0.00742803 -0.0381461 
432 2 -1.34225 35.5284 3.55097 -0.00703797 -0.0805589 -0.0389504 
211 2 11.4235 14.2917 -5.47774 0.113627 0.0640823 0.0425943 
181 1 10.9924 18.952 -7.62767 -0.00824214 -0.0173842 -0.033406 
183 1 10.6797 19.0489 -9.01497 -0.00919746 0.0235454 -0.00683907 
201 1 11.7041 20.0068 -11.8281 0.023112 -0.016512 0.0134732 
198 1 10.7294 20.5988 -11.0737 -0.00740013 0.00483966 -0.00702124 
210 2 10.8666 21.5422 -11.4107 0.0310763 0.0351531 -0.0757569 
194 1 9.62709 21.1922 -7.34758 0.00789498 -0.00876093 0.00114571 
189 1 10.4006 20.3197 -9.58839 0.00186627 0.0182626 -0.0181038 
197 1 9.82591 21.3227 -8.69906 -0.00223898 0.0383841 -0.0015505 
209 2 9.56197 22.2509 -9.03986 0.0442168 0.0350482 0.0633227 
187 1 10.5014 20.0275 -6.87229 -0.00214232 -0.0125559 0.0260064 
417 1 2.50722 34.6563 3.77155 -0.0162401 -0.00469007 0.0287894 
134 2 -7.22217 16.1453 -6.80242 -0.0307795 0.0206745 -0.0171071 
414 1 3.7662 34.2718 3.20401 -0.00299827 0.00426216 0.0205979 
121 1 -9.1913 14.7541 -5.86833 0.0267696 -2.06984e-05 0.0100136 
123 1 -9.69908 13.7408 -5.60766 0.00966058 -0.0304863 0.0010534 
133 2 -9.36863 13.0099 -4.86324 -0.0540696 0.0523066 -0.0927043 
426 2 4.07196 33.1656 3.20157 -0.0261804 0.0179495 0.0580746 
199 1 11.5252 15.1332 -6.09511 -0.0165209 0.0173662 -0.0240613 
196 1 10.9835 16.1396 -5.35808 0.0316558 0.00957407 -0.00955608 
188 1 11.4848 17.5059 -5.7313 0.0202353 0.00591308 0.012342 
405 1 4.53419 35.5826 2.88784 -0.000642026 -0.0178705 -0.00190622 
208 2 10.4655 15.7569 -4.43533 -0.0336259 -0.0257778 0.0191746 
206 2 9.44088 22.1702 -7.05995 -0.0345811 -0.0800985 -0.07612 
195 1 11.5164 18.8431 -5.05443 -0.00397785 -0.0181199 -0.00980011 
205 2 11.3643 21.0162 -4.9532 -0.00829406 -0.0073243 -0.028134 
193 1 11.3599 20.1482 -5.66967 0.0154644 -0.0134794 -0.0112074 
430 2 -1.87627 34.8975 1.6237 -0.0329557 -0.0469884 -0.0675042 
418 1 -1.46232 35.6065 2.44888 0.00169583 0.00929801 0.00499007 
185 1 11.7368 18.4019 -9.90566 -0.0155465 0.000341702 0.00239713 
207 2 11.2716 19.1028 -4.09719 -0.0186012 -0.00370911 -0.0220102 
136 2 -11.791 12.8952 -5.00125 0.0191596 0.063485 0.0385219 
141 2 -9.58102 18.1972 -11.8842 -0.0318872 -0.00520415 0.0194374 
142 2 -11.3556 17.0087 34.7118 -0.00925396 -0.0429866 -0.02446 
130 1 -11.7915 16.4889 35.6363 -0.0201486 0.0036749 -0.020835 
362 1 29.6538 -11.8445 15.8849 -0.00322366 -0.00827702 0.0177693 
364 1 28.2902 -11.3938 16.2172 0.00503407 0.0213694 -0.0346526 
363 1 30.6923 -9.97313 17.175 0.0167194 0.0230968 -0.00970545 
227 1 34.7676 10.6457 25.4338 0.00963909 -0.00139417 0.0224535 
385 2 32.832 -11.1846 13.6915 0.0699342 0.0693599 -0.0243134 
237 1 34.8473 9.73187 26.805 -0.00634325 0.00734707 0.00809581 
367 1 32.1321 -10.9452 15.7358 0.0269836 0.0146123 -0.0169429 
374 1 33.315 -10.4856 16.177 -0.00198162 0.00823599 -0.0233337 
236 1 31.2765 11.781 21.8933 -0.00870073 0.00293993 -0.032999 
361 1 30.6566 -10.9315 16.4458 0.00809671 0.0227176 -0.0152618 
245 2 34.1648 5.19306 26.2036 -0.0641398 -0.00171624 -0.0784628 
383 1 25.9076 -10.5051 16.857 0.00699403 -0.0108696 -0.0104286 
395 2 25.1805 -10.5859 17.7833 0.0562608 -0.0401046 -0.0550958 
366 1 28.281 -10.2113 17.0169 0.0135653 -0.0075973 -0.00132636 
365 1 29.4896 -9.26667 17.4469 0.000460594 -0.0104807 -0.006264 
372 1 27.1084 -9.68 17.2724 0.0233258 0.0049486 -0.0204062 
394 2 25.4593 -8.12154 17.837 0.074777 -0.00788953 -0.0664299 
384 1 26.563 -8.46804 18.0886 0.00344903 0.0273164 -0.0119645 
382 1 27.6997 -7.4738 17.9112 0.0175591 0.0134082 -0.0261297 
371 1 29.1691 -8.00805 17.8524 0.00736265 -0.0251672 -0.0282689 
381 1 30.1627 -7.09953 18.11 -0.00502789 0.0171021 -0.0167296 
396 2 26.5087 -8.48679 19.202 0.0719878 -0.0687793 -0.0528466 
390 2 27.5505 -6.239 17.9095 -0.0384645 -0.00582236 0.0609102 
393 2 29.7091 -5.98608 18.467 -0.109001 0.0636026 0.0466342 
377 1 33.2627 -9.61109 17.2793 0.0311228 -0.0127711 -0.0239728 
369 1 31.8532 -9.01725 17.2232 0.0116438 -0.030734 -0.02904 
378 1 31.3754 -7.89572 18.1317 0.00160891 0.00671854 0.011134 
389 2 34.1193 -9.08473 17.6025 -0.0317069 0.0683708 -0.0181283 
495 2 31.8367 -7.06833 18.7016 0.00184727 -0.00169148 0.0550641 
386 2 34.3802 -10.6418 15.5102 -0.038652 0.0197083 -0.0207591 
373 1 31.9696 -11.3587 14.4871 0.0153046 -0.0149553 0.0210172 
247 2 28.1297 11.0674 22.866 0.0289638 -0.0631906 -0.0647691 
235 1 29.1652 10.7791 23.4374 0.0248116 0.0110947 -0.00919115 
244 2 27.6627 9.84232 23.9092 -0.00638285 0.0166824 -0.013845 
232 1 28.7089 9.76244 24.2512 -0.0257372 0.001047 -0.0120195 
228 1 32.9095 11.8603 23.6808 0.0135803 0.0228471 -0.0200706 
226 1 30.5057 10.6536 22.6959 -0.0268028 0.0183074 0.00427294 
220 1 31.2963 9.88912 23.6182 -0.00673749 -0.0355521 0.0173889 
241 2 29.644 6.3888 26.8962 -0.00742385 0.027424 0.0686068 
229 1 29.8605 7.20653 26.2892 0.00576154 -0.0364047 0.00521414 
224 1 29.6974 9.31968 25.1439 0.0281587 -0.0133427 0.0283404 
243 2 28.3919 8.43592 26.6726 -0.0459253 -0.0151598 -0.0238021 
231 1 29.4064 8.48459 26.3608 -0.0166319 0.0176845 -0.00710842 
225 1 34.0076 7.49241 25.9266 0.00041969 0.0158746 -0.0181281 
249 2 34.7984 10.2741 27.8414 0.00425778 -0.00746625 -0.0298486 
219 1 33.0531 8.4948 25.6157 -0.0117728 -0.0198696 0.0138555 
242 2 31.646 5.13491 25.2383 -0.0105341 -0.016807 0.0192008 
221 1 33.5819 9.94759 25.1298 0.0265167 0.0126014 0.0175492 
217 1 31.6013 8.33841 25.3173 -0.0162708 0.0137412 0.00125501 
234 1 35.2242 8.34293 26.602 -0.00913399 -0.00420469 0.0156616 
223 1 31.1758 7.07715 25.6462 0.00826198 0.0172549 -0.0208875 
222 1 32.7618 10.5463 24.0181 0.0099809 0.0018632 0.0177204 
218 1 31.0056 9.22159 24.7596 -0.00550313 0.00485505 -0.0144714 
230 1 32.2233 6.00979 25.5924 0.00264234 0.0116576 -0.0163869 
233 1 33.5504 6.11745 25.8136 -0.0170188 0.00808286 -0.0214234 
380 1 25.4628 -11.6961 16.2761 -0.00155856 -0.00183293 -0.0204269 
392 2 24.4613 -11.6318 15.9929 0.0538891 -0.0393123 -0.0771526 
246 2 35.7885 7.73367 27.1215 -0.0246142 0.00703671 0.0235195 
248 2 30.7219 11.9744 20.9708 0.0479686 -0.0531383 -0.00547381 
200 1 13.6933 14.8029 -7.52668 0.0212309 -0.0239739 -0.00227501 
212 2 14.5211 13.8504 -7.83968 0.0497175 0.0499455 0.0417679 
215 2 13.8418 14.2881 -10.005 -0.0783366 0.0347458 -0.045375 
105 2 13.0583 34.1597 -4.90364 0.0250798 -0.00411185 0.0288267 
203 1 13.8773 15.0485 -8.98401 0.00602736 -0.0111469 0.0256623 
567 2 25.5992 14.8279 0.192274 0.0354419 0.0566922 0.0814743 
541 1 24.0113 17.2386 2.84753 0.0116799 0.0110315 -0.00257307 
547 1 23.3091 15.967 2.31645 0.0230376 0.00393543 0.00539469 
557 1 21.0972 17.2694 2.49068 0.0337584 0.0203832 -0.0123803 
554 1 21.7559 16.0089 2.15789 -0.000817819 0.0180684 0.00562962 
566 2 21.0796 15.2685 1.86514 -0.0415722 0.110795 -0.09502 
553 1 24.1242 14.9993 1.68928 0.00220139 -0.00319108 0.0170341 
565 2 23.2812 14.3536 1.3401 0.0052178 0.00590445 -0.0295749 
569 2 20.2162 17.542 3.03318 0.141867 -0.0129511 -0.0434909 
542 1 25.4225 17.3622 2.66621 -0.0235025 0.0040465 -0.0046538 
548 1 26.0476 16.6007 1.3916 0.00060543 -0.0049126 -0.0109123 
571 2 28.3605 18.1518 1.0865 0.0311789 -0.0401981 0.0478052 
559 1 27.8183 17.8019 2.00361 0.00564618 -0.0233834 0.0023968 
568 2 28.3255 15.9811 0.823047 0.0516328 0.0341339 0.0168491 
556 1 27.5136 16.5347 1.32537 -0.00404595 0.0143732 -0.00155801 
555 1 25.2899 15.5926 0.981914 0.00802994 0.00941359 -0.00285698 
543 1 23.2049 18.3691 3.16051 0.0216938 0.000976677 -0.0231192 
549 1 21.9587 18.4604 2.9737 -0.00065867 0.0122956 0.00982437 
574 2 23.135 22.7463 4.36133 -0.150918 0.00189084 -0.107621 
573 2 21.4917 21.8823 3.40947 0.0609943 -0.0108972 0.020877 
562 1 23.6723 22.0574 4.92621 -0.00329496 -0.0140026 0.0243449 
570 2 20.1647 19.2193 3.83444 -0.0162802 -0.0280264 -0.0341211 
551 1 23.0466 20.6793 4.74149 -0.0178153 0.00638541 0.0344199 
561 1 21.7879 20.9393 4.01069 0.0113378 0.00501738 0.0104328 
545 1 23.7458 19.6849 3.81155 -0.00771055 0.00143046 0.00521918 
558 1 21.0251 19.6322 3.64757 0.031767 -0.0029438 0.0245348 
550 1 27.2744 18.6396 3.22537 -0.0153034 -0.0202423 -0.0404131 
544 1 25.8253 18.6037 3.36531 -0.0049302 -0.0189624 0.0143839 
575 2 28.1488 21.7545 4.83937 -0.029228 0.023604 -0.0133989 
576 2 25.4594 22.997 4.80656 0.0431906 -0.0498494 0.0149982 
563 1 27.5168 20.9608 4.2353 0.010411 0.0217654 -0.0153049 
572 2 29.1151 19.8146 2.97072 0.143247 -0.00513301 0.042053 
564 1 25.1288 21.9817 4.43928 -0.0124639 -0.00502167 0.0160249 
546 1 25.0791 19.8378 3.49964 -0.0267371 0.014242 0.0332949 
552 1 25.8945 20.8184 4.17959 -0.0247788 -0.00442475 -0.0079167 
560 1 28.0408 19.9166 3.47667 -0.0182863 0.00852219 0.0187618 
357 2 15.8047 20.5823 9.15035 -0.0851068 0.0545046 -0.0593558 
345 1 16.4646 20.9209 9.92086 0.00808087 0.00781143 0.000529801 
342 1 16.4373 22.2288 10.5051 0.000370356 -0.0225664 -0.0149488 
358 2 17.8585 20.5929 7.91109 0.0998816 -0.0159393 -0.0227885 
354 2 15.2345 22.7006 10.5091 0.0670845 -0.0119298 -0.025484 
333 1 17.3618 23.302 11.1969 -0.0285585 -0.0329058 0.0173894 
344 1 22.6631 20.2872 11.167 0.00770159 0.0096212 -0.0109804 
336 1 20.6187 19.7147 9.95208 -0.0103792 -0.00286961 0.0251379 
348 1 19.59 19.5191 8.97816 -0.0157831 -0.00153468 0.00267789 
360 2 19.9019 19.0468 8.085 0.0412891 -0.103307 -0.0190358 
346 1 18.2014 20.0654 8.81331 -0.0036403 -0.0169589 -0.0120751 
335 1 17.6607 19.9947 10.2266 -0.0260708 0.00631097 -0.0036254 
192 1 13.267 16.2592 -9.74483 0.0337692 0.0258027 0.0274548 
329 1 18.5287 20.6129 11.3216 -0.0247443 0.00330666 -0.0191123 
330 1 19.8475 19.9435 11.397 -0.0157382 -0.00800037 0.0069566 
347 1 21.952 19.8983 9.89942 -0.0291463 -0.00480303 -0.0167507 
359 2 22.6232 19.6879 8.90136 0.0347711 -0.0503358 -0.0114095 
356 2 23.6521 20.1007 11.0396 0.0921278 -0.0658157 0.08285 
204 1 13.7338 16.774 -10.9642 0.0178942 -0.0225647 -0.00277385 
353 2 16.6844 25.0068 11.5148 0.0368158 0.0265162 -0.0220805 
341 1 17.6457 24.6074 11.6375 -0.00221946 -0.016796 0.0135919 
327 1 18.1451 22.0978 11.8156 0.000396621 -0.00848134 -0.0150262 
186 1 12.475 17.2467 -9.15565 0.0127493 0.0191719 -0.0300861 
216 2 20.5933 27.1213 10.8856 -0.062368 -0.103936 -0.0317771 
190 1 12.3934 15.5094 -7.28045 0.00517375 0.0251122 0.00956119 
202 1 13.1076 17.9239 -11.8677 0.0103815 0.02404 -0.00795173 
184 1 12.1671 16.7938 -7.82037 0.0376331 -0.00217784 -0.00868952 
177 2 22.2946 26.322 11.8475 0.00694046 -0.0552971 -0.0697267 
334 1 22.0884 20.1729 12.4519 -0.0255936 0.0038961 -0.00768144 
328 1 20.5537 20.4905 12.5235 0.0344262 0.00169363 0.0269171 
326 1 20.4855 22.0038 12.4429 0.00247689 0.0267043 -0.0195059 
340 1 22.538 22.1016 14.1886 0.0118889 0.0171016 -0.00586501 
343 1 22.962 20.8623 13.4576 -0.00960044 0.0122128 0.00620702 
332 1 21.3061 22.5823 13.5511 0.0242427 -0.0117728 -0.0164013 
351 2 22.0124 24.753 13.2257 -0.0927249 -0.06934 0.0262102 
352 2 23.3352 22.64 14.3893 0.00423829 0.028282 0.00390898 
325 1 19.2753 22.6345 12.4559 -0.00813022 -0.0233618 -0.0322854 
339 1 21.1599 24.034 13.4685 -0.0257074 -0.0348317 -0.00477765 
355 2 23.4545 20.2788 14.2802 -0.016196 -0.00730501 -0.011037 
501 2 17.9831 32.4017 31.8185 0.00522272 0.0955734 0.0113128 
486 1 22.9651 31.6196 30.2499 0.00636584 -0.000655549 0.00186984 
331 1 18.9389 23.8314 13.46 0.000449581 -0.0197357 0.00721128 
337 1 20.036 24.5152 14.172 -0.0060623 -0.0074037 0.00728819 
338 1 18.2406 24.9246 12.9575 0.000854071 0.0265099 0.00953315 
349 2 20.0215 25.479 14.3648 0.0442242 0.0413639 0.0125201 
473 1 19.2347 31.7974 29.8971 0.00364188 0.0142223 0.0149323 
238 1 34.8384 12.1961 25.512 -0.0211322 -0.0118294 -0.0231287 
370 1 27.0006 35.8642 15.8001 -0.00614187 -0.00339929 -0.0340554 
379 1 26.9976 34.8274 14.8893 -0.00194987 0.0085474 -0.000807997 
388 2 27.9943 34.3824 13.1063 -0.00385358 0.0738615 -0.0199912 
376 1 28.3362 34.8682 14.2256 -0.00779655 -0.0330595 -0.00182477 
391 2 26.0354 34.4961 14.4293 -0.0608326 0.153634 -0.0322447 
250 2 35.4564 13.2378 25.7319 0.0318926 0.0491004 0.0708365 
387 2 31.3763 35.9715 12.811 0.00339727 0.0192067 -0.133629 
489 1 22.8259 30.4714 31.1956 -0.0181763 0.018233 -0.00443363 
174 2 20.0438 18.3574 23.576 0.0528011 0.0759698 0.03269 
252 2 34.6163 13.522 24.4339 0.0460075 0.0145225 0.0463179 
239 1 32.5449 12.0606 22.1981 -0.00550633 -0.00924223 0.0135085 
213 2 12.5561 20.0412 35.1701 0.00980949 0.0288891 0.0403065 
251 2 33.0414 12.9189 21.6226 0.00688748 0.0121435 -0.0509877 
375 1 30.8818 35.9428 13.8822 0.0202696 -0.00212872 -0.0209548 
240 1 34.1063 12.428 24.384 -0.0141882 0.0342786 -0.00599744 
173 2 21.333 21.4222 23.5865 -0.0768577 -0.0802768 -0.0329365 
170 2 19.4327 23.691 23.7198 0.00344456 -0.0417496 0.00267996 
161 1 20.1575 21.3413 23.7178 -0.00763495 -0.016095 -0.0158481 
162 1 20.1293 18.6166 24.498 0.0238192 -0.00699366 -0.0254348 
368 1 29.7479 35.3701 14.6791 0.00924734 -0.00136661 0.0296367 
178 2 20.2198 16.1161 27.7565 0.0192109 0.0591317 -0.0425685 
166 1 20.3877 17.1523 27.9103 0.0149229 -0.00708706 -0.0144916 
180 2 19.85 17.1678 30.0018 0.0287385 -0.0820297 -0.0376274 
158 1 19.8772 22.7607 24.0753 -0.0210806 0.00843611 -0.00621506 
151 1 20.3155 23.1866 25.4556 0.00922453 -0.003192 0.0137657 
145 1 20.3181 22.0895 26.4154 -0.00690392 -0.000767554 0.0129842 
146 1 20.9088 22.3347 27.731 0.0228051 -0.0176417 0.00540602 
153 1 20.2994 20.1182 24.7922 -0.00378143 -0.0270552 -0.0169556 
148 1 20.1491 21.5047 28.6448 0.0109056 0.000164301 0.0239508 
147 1 20.487 20.6589 25.9959 0.0124401 0.0274865 0.0251891 
150 1 19.793 20.1605 28.3098 0.0212424 0.0133027 0.00561005 
156 1 20.0579 19.3338 29.41 -0.00894427 0.009636 0.00928801 
149 1 20.5451 19.6183 27.1997 -0.0187319 0.00662913 -0.0117214 
168 1 20.2403 17.7457 29.0865 -0.00809878 -0.00189354 -0.0196606 
155 1 20.9302 18.2749 26.858 -0.00390352 -0.0168677 -0.00587275 
165 1 20.5451 17.8769 25.5786 -0.0108531 -0.0363666 -0.00845686 
154 1 19.7468 22.0611 29.8309 0.00637606 0.0230789 0.0107154 
152 1 20.9337 23.6973 28.1184 -0.0112811 0.00812786 -0.00710794 
487 1 19.247 28.4954 26.2036 -0.00591564 -0.000221841 -0.00978543 
499 2 18.8283 27.5871 26.2332 -0.0540282 -0.0224621 -0.0240696 
478 1 19.3639 29.0063 27.6228 -0.0159354 -0.0180547 0.0182112 
157 1 20.3974 24.5979 25.7985 -0.00854835 0.0187797 0.0265177 
496 2 18.9123 29.5347 24.4053 0.036955 0.0117637 -0.0706943 
484 1 19.422 29.4615 25.4327 -0.00443001 0.00523422 -0.0185052 
171 2 20.3473 24.979 24.7786 -0.0268243 -0.0219535 0.142364 
159 1 21.0874 24.7596 27.0513 -0.00700874 -0.0192583 0.0161945 
169 2 21.1901 25.8064 27.1263 -0.0169336 -0.0753294 -0.0055612 
172 2 20.2814 25.4823 29.57 0.0966794 0.0150896 -0.0401067 
160 1 20.5296 24.3577 29.304 0.0101708 -0.00665427 0.0157641 
472 1 18.9475 30.2283 28.1208 0.0208893 -0.0136798 -0.00464171 
503 2 19.351 28.2435 28.3117 -0.0159571 -0.0462217 -0.0711753 
493 2 19.9009 32.082 23.6988 -0.0410906 -0.0498009 -0.027197 
483 1 20.124 32.0305 24.8189 0.00684906 0.0061503 -0.00722907 
476 1 19.7251 30.6274 25.641 0.00653991 -0.000867134 0.00987906 
475 1 21.3836 32.7038 26.6108 -0.0123874 0.0270871 -0.00163566 
481 1 20.6187 33.208 25.3883 0.00789444 0.0138655 0.00921642 
469 1 20.507 31.9807 27.5404 0.0038676 -0.00529494 -0.00173594 
470 1 19.4678 31.0112 26.8774 0.0178449 0.0266393 0.00243494 
494 2 23.205 33.7987 26.5647 0.0756205 -0.0413425 -0.0744661 
482 1 22.5183 33.376 27.2214 -0.0087728 0.00362741 -0.0057084 
485 1 22.7513 33.4331 28.7048 -0.00314803 -0.00569937 0.0113126 
471 1 20.6112 32.225 29.0112 0.002231 0.00413626 0.00488832 
477 1 22.0605 32.4534 29.4428 -0.00638547 0.0145019 -0.0022508 
497 2 23.6045 33.5413 28.9456 0.025751 0.0909669 0.0283122 
474 1 19.3577 30.4077 29.5542 0.000195395 0.0335956 -0.00728402 
163 1 19.9017 23.5069 30.1719 -0.00520474 0.0123257 -0.013794 
167 1 19.2132 19.812 30.5367 -0.047638 -0.0216178 0.00938731 
164 1 19.373 21.2359 30.952 0.00787249 0.014236 0.0246681 
176 2 19.1885 22.0035 31.7326 -0.0356738 0.0581639 0.00850353 
282 2 34.0356 13.0695 32.4195 0.0513501 -0.0993486 -0.00182192 
135 2 33.6808 13.6759 32.9955 -0.0111885 -0.0498878 -0.0552549 
490 1 18.0538 30.1739 32.8034 -0.00823769 -0.00444808 -0.0106287 
504 2 17.1082 30.0329 33.1496 0.0480547 0.0493042 0.0123489 
492 1 18.0096 29.2999 31.5414 0.0148424 -0.011677 -0.0286914 
502 2 18.6683 30.426 33.5915 0.0230338 0.0977242 -0.0389458 
175 2 19.4344 23.8179 31.1429 0.0595188 0.00621264 -0.0262887 
491 1 20.4972 29.0959 31.3823 0.000276195 0.000391192 -0.02323 
480 1 19.1405 29.3754 30.7169 -0.0147844 -0.0315882 -0.0139263 
488 1 21.8115 29.2561 31.7379 0.0185231 -0.0128545 -0.00150512 
500 2 22.3416 28.6258 32.3971 -0.0202788 0.145752 0.0983077 
498 2 23.7874 29.8994 31.2943 0.0628145 -0.0903706 -0.0561422 
479 1 18.9908 32.4861 31.1584 -0.0231515 0.0307793 0.000800482 
350 2 18.9555 25.7714 12.9397 -0.0461835 -0.113605 0.00696289 
214 2 13.1994 17.5076 35.1472 0.0324599 0.0395967 -0.0346165 
324 2 55.5302 -0.410978 0.501446 -0.0254505 0.0180078 0.0190811 
323 2 53.1596 0.54805 2.09758 0.0840457 0.00222214 -0.0154953 
319 2 51.425 -1.89357 5.92314 -0.121185 -0.0063507 -0.0606362 
304 1 52.865 -3.27485 6.5668 0.0196482 0.0134103 -0.0216109 
307 1 52.2925 -2.43213 5.6223 0.0134213 0.014074 0.0144151 
316 2 51.9845 -2.93653 7.3625 -0.123288 0.0706583 0.0219213 
298 1 53.0499 -1.95609 4.4108 -0.00441192 -0.00752546 0.00616649 
320 2 51.6337 -0.391307 3.80682 0.00462448 0.049503 0.0218838 
308 1 52.6747 -0.855384 3.69083 -0.0277681 -0.0119372 0.00754657 
311 1 53.4316 -0.339832 2.70496 -0.0100146 -0.00604861 0.0317239 
312 1 55.8874 -0.545601 1.66506 -0.00714232 0.0350639 0.0142904 
299 1 57.9738 -2.05447 2.39778 -0.00576253 -0.000191594 -0.0200927 
310 1 57.3685 -0.986704 1.91066 -0.0154201 -0.000411622 0.00352212 
291 1 57.2225 -3.22565 4.62339 0.0163405 -0.0107074 0.00238186 
293 1 56.7698 -2.36843 3.66213 0.0174065 -0.0135743 0.0177202 
289 1 56.3703 -3.43881 5.83018 0.0123158 0.0118306 -0.00116112 
300 1 54.8557 -0.753179 2.58907 0.00209155 -0.00673322 0.0202069 
290 1 54.9784 -3.16214 5.7285 -0.0177179 0.00423607 -0.00641273 
294 1 55.3651 -1.73467 3.63188 -0.00299592 0.031749 0.00802371 
292 1 54.4589 -2.24181 4.65286 0.00323209 0.00466584 0.00433605 
309 1 59.2104 -2.61216 2.77318 0.0158281 -0.0183273 -0.0157147 
306 1 59.4906 -3.50041 3.79416 -0.0224752 0.0342008 -0.0216269 
322 2 58.1971 -0.473068 1.55208 -0.0528579 0.0746282 -0.0102143 
297 1 58.6107 -3.9242 4.79387 0.00456233 -0.0373263 0.0187623 
313 2 56.5144 -6.17992 7.68958 -0.014757 -0.107081 -0.00971856 
302 1 57.7928 -4.5156 7.01515 0.0139752 -0.0157068 0.012432 
296 1 54.0767 -4.1006 6.43298 -0.0231574 -0.0107283 -0.0260173 
303 1 54.3097 -5.54002 7.13571 0.0250049 -0.0180958 0.0268874 
315 2 53.5534 -6.40292 7.59352 -0.0165505 0.0529985 0.0158892 
301 1 55.5655 -5.57006 7.33038 0.015883 -0.0162961 0.0100855 
305 1 58.8458 -4.76613 6.07691 0.017277 -0.00134398 0.00234688 
317 2 59.8813 -5.01609 6.12555 -0.0423438 -0.00895457 -0.136899 
295 1 56.411 -4.42448 6.63561 -0.00624929 0.0157331 -0.0226717 
314 2 58.1921 -4.97649 8.08086 0.123124 0.00280262 0.0326443 
63 2 41.7876 -9.57028 25.8294 -0.0323445 0.060271 -0.0487622 
64 2 38.6989 -7.90079 26.3236 -0.0208437 0.0203566 -0.0153971 
51 1 41.973 -8.47657 25.7068 0.00114919 -0.00244633 0.016655 
52 1 39.5968 -7.05341 26.5968 0.0208611 -0.00895883 0.0117657 
44 1 41.2023 -7.19032 26.5059 -0.0106876 0.0269783 -0.034644 
67 2 37.6184 -5.89488 26.3452 0.0492573 -0.02727 0.152357 
55 1 38.6476 -6.17776 26.5977 -0.00107189 0.00805401 -0.0137575 
61 2 43.6804 -8.06724 24.0949 -0.0197153 -0.0739037 -0.000645295 
49 1 43.3162 -7.87127 25.1678 0.00341695 -0.008103 -0.00731733 
62 2 46.0544 -6.86007 25.5989 0.0513798 -0.0936718 -0.107603 
43 1 43.7498 -6.67794 25.9558 0.012575 -0.0238239 -0.00817816 
68 2 37.3103 -3.55142 29.5591 -0.0103799 0.00905846 0.113799 
38 1 41.5275 -5.84949 26.5584 0.0177621 -0.0564 -0.0132618 
46 1 39.5772 -4.87578 27.1161 -0.00393892 -0.0239291 0.00164449 
40 1 40.7858 -5.28576 27.3072 -0.0116353 0.000986633 -0.0156252 
56 1 38.9218 -4.29084 28.2801 0.00293033 -0.0125451 0.00173514 
42 1 41.3206 -4.51368 28.1812 -0.0103722 0.00704288 0.0280529 
48 1 40.2447 -4.30175 29.1275 0.0123337 -0.00305675 -0.00276672 
59 1 37.8525 -3.35 28.5924 0.0121948 0.00688415 0.010625 
60 1 40.6943 -3.16878 30.0753 -0.0291428 -0.00284978 0.0124168 
50 1 45.2042 -6.18288 25.7046 0.0098855 0.023516 0.0325617 
65 2 46.586 -5.2958 26.6666 0.018481 -0.00514896 -0.04537 
53 1 45.4723 -5.10838 26.4675 0.00180909 -0.0148497 -0.0126746 
45 1 45.0168 -4.34106 27.7668 -0.00451049 -0.0158393 0.0250559 
39 1 43.7251 -4.96181 27.7541 -0.00212625 -0.00181979 0.0145737 
37 1 43.05 -5.62536 26.498 -0.0177615 -0.000445193 -0.0306545 
54 1 45.4115 -3.38001 28.9101 -0.0131858 -0.0110495 -0.00390711 
69 2 46.3779 -2.87007 29.0903 -0.0588349 0.10567 -0.0852121 
41 1 42.7081 -4.32731 28.448 0.00959608 0.00961953 0.0322506 
57 1 44.4281 -3.05768 29.7869 0.0189701 -0.00361576 0.00587947 
47 1 43.1074 -3.42961 29.4458 -0.0205839 -0.0194582 -0.000819259 
28 2 48.4158 11.1105 27.4311 -0.0542471 -0.0248841 -0.0357338 
26 2 43.3786 10.69 31.1907 -0.100085 0.0391574 -0.0287259 
58 1 42.0688 -2.91428 30.3343 0.00151484 0.00577017 -0.0173887 
66 2 44.8135 -2.36595 30.7448 -0.0657761 0.0603635 -0.0484684 
25 2 44.4548 9.78265 29.1705 0.00502231 -0.00926402 -0.0175077 
7 1 45.0094 11.8321 30.512 0.00278754 -0.00112559 0.0162965 
13 1 44.9007 10.8938 29.4322 -0.00686631 0.0169611 0.00975687 
27 2 46.4219 9.87222 28.2965 -0.00552833 -0.0478486 -0.0534512 
15 1 46.1584 10.9878 28.718 -0.0114404 0.0226914 -0.00421022 
72 2 39.9707 -2.63275 30.631 -0.042167 0.131741 -0.0267388 
20 1 51.3216 11.4656 30.2756 -0.0113441 -0.000393877 0.00510057 
36 2 50.7871 11.3331 34.5054 -0.0370983 -0.0828599 0.00373523 
29 2 43.6243 11.6593 33.6743 -0.036739 -0.0208416 0.0354663 
70 2 42.2238 -2.06285 31.0339 0.0249931 0.0875856 0.0299502 
14 1 43.8955 11.5511 31.673 -0.0147679 0.000969031 0.00853064 
32 2 51.9031 11.5556 29.3686 0.0240358 0.108771 0.0520006 
23 1 51.5706 11.5668 31.6228 -0.0486873 -0.000275414 0.0254512 
286 2 58.4767 -11.8338 14.6051 0.00553825 0.0531117 -0.0478049 
17 1 44.2487 11.9737 32.8353 -0.00422323 -0.000351974 0.0297684 
16 1 48.4007 11.9658 28.2247 -0.000673681 -0.00663193 -0.00586575 
421 2 42.0985 26.1195 2.19933 -0.0900426 0.0215149 -0.0752025 
280 2 50.8864 31.933 11.6751 -0.039548 0.0301836 0.019677 
268 1 51.8678 32.0855 11.686 0.00853419 0.00706926 -0.00593626 
283 2 52.9582 32.31 9.57122 -0.0608659 0.0334018 0.0514511 
271 1 52.8584 32.3731 10.8271 -0.00163407 -0.0140487 -0.0204514 
284 2 54.8378 33.0386 9.27573 -0.0880782 0.0152554 -0.0215681 
287 2 57.3309 33.4356 10.6392 -0.0177601 -0.0425401 0.0655529 
275 1 56.1733 33.569 10.7454 -0.00664204 -0.0240121 0.0113349 
262 1 53.9438 33.151 11.3653 -0.00383602 0.0188975 -0.0142782 
272 1 54.9961 32.8997 10.2972 -0.0196767 -0.00734022 -0.00468932 
288 2 58.4896 34.9224 11.6989 -0.0069131 -0.0199929 -0.0256289 
33 2 46.4349 13.8094 -11.7465 0.000830342 -0.0730059 -0.0238563 
278 2 52.5904 31.8112 18.2087 0.0512533 0.0435459 0.0268062 
277 2 51.7884 30.1295 15.8118 -0.0577461 -0.0454528 -0.0502885 
265 1 52.2693 30.88 15.1009 -0.00718168 0.0219016 0.022057 
267 1 51.7691 31.1875 13.7828 -0.00178869 -0.0216882 0.0177249 
266 1 53.3661 31.9566 17.462 -0.0006072 -0.0180334 -0.00922273 
259 1 53.2962 31.7582 15.8338 -0.00958272 -0.0215833 -0.000971805 
279 2 50.9154 30.5143 13.6037 -0.0815848 -0.0203122 0.102628 
260 1 52.1679 32.3161 13.0794 0.0171452 0.0260027 -0.00401187 
261 1 55.4929 32.8726 16.6347 -0.00952263 -0.00335675 0.0120145 
269 1 54.7675 32.2928 17.6232 0.00736915 -0.0158184 0.0290032 
255 1 55.1422 33.2688 15.4491 0.000151818 0.00501872 0.00561685 
263 1 57.3185 34.2098 14.6079 -0.016666 -0.0173726 0.00426545 
253 1 53.7528 32.9846 15.0614 0.00294429 0.0082549 0.00863178 
270 1 57.1959 33.0778 16.876 -0.0277574 -0.00266811 0.00560897 
257 1 55.8964 34.2015 14.6175 0.00475383 -0.00471512 0.0248549 
273 1 57.942 33.6401 15.9056 0.00996377 -0.0134042 0.0101528 
254 1 53.3929 32.9181 13.7132 0.00845637 0.00824892 0.0178206 
274 1 58.0868 35.3454 13.967 0.00613995 0.012886 -0.00195607 
12 1 50.3825 12.3604 32.3259 0.00669144 0.00618688 0.0340932 
256 1 54.3187 33.45 12.7204 0.00355 -0.0089325 0.0107123 
258 1 55.6767 33.9516 13.1098 -0.007859 0.00951178 0.0178981 
285 2 58.7671 32.8911 15.3763 -0.0539563 0.0724946 -0.0536192 