ITEM: TIMESTEP
1080000
ITEM: NUMBER OF ATOMS
576
ITEM: BOX BOUNDS pp pp pp
-1.2000000000000000e+01 8.4000000000000000e+01
-1.2000000000000000e+01 3.6000000000000000e+01
-1.2000000000000000e+01 3.6000000000000000e+01
ITEM: ATOMS id type x y z vx vy vz 
205 2 5.85401 -3.36709 -4.6938 0.00965665 0.046195 0.0133351 
116 1 7.68085 -3.82261 -5.51231 0.0351768 0.0112858 -0.0202002 
109 1 9.60377 -2.12257 -5.91028 -0.0044918 0.000550926 0.00234426 
124 1 6.26508 -3.51632 -5.81159 -0.022592 -0.0161343 0.0175724 
110 1 8.82915 -3.46155 -6.35108 -0.00692694 -0.00164483 0.0182085 
112 1 8.67088 -3.76401 -7.84908 0.0057277 0.014581 0.0218277 
127 1 6.14459 -3.76638 -7.28276 -0.0216905 -0.00506811 0.0133087 
118 1 7.29846 -3.66714 -8.30991 -0.0330485 -0.00711285 0.00617576 
128 1 6.97986 -3.04024 -9.60137 -0.00207488 -0.00401148 0.0327762 
111 1 10.0548 -1.26842 -7.18483 -0.0161983 -0.0019835 0.0221023 
114 1 9.52844 -2.96719 -8.79273 0.00280578 0.00511836 -0.00582345 
120 1 9.27683 -3.16784 -10.3208 -0.0012518 -0.00653447 0.0234961 
131 1 7.84546 -3.35216 -10.759 -0.00800538 -0.0166119 -0.00144811 
113 1 10.4615 -2.02954 -8.37833 0.0149 -0.0310472 -0.0140784 
125 1 10.439 1.08093 -6.43966 -0.034009 0.0108667 -0.00257785 
140 2 6.07188 -2.90085 -9.75553 0.0311772 0.0432402 -0.0138188 
132 1 10.5282 -2.82269 -11.1626 -0.0281986 -0.00612277 -0.0286017 
386 2 -6.39983 12.0845 3.62666 0.0097647 0.0580542 -0.0212102 
134 2 8.98897 1.37897 -5.44122 0.0656269 0.104456 0.0460315 
122 1 10.155 1.96101 -5.63851 0.0155196 -0.00732483 -0.0042051 
123 1 8.2958 -3.68902 -4.04078 0.012883 0.0107676 -0.00716032 
496 2 7.96343 -4.57247 -3.4056 -0.0479492 -0.0335397 0.0921523 
121 1 9.3905 -3.09748 -3.91082 0.0168054 0.00345165 -0.00282053 
115 1 10.2661 -2.05692 -4.41715 -0.0130109 -0.00938667 0.0105353 
139 2 10.9306 -1.25686 -4.96407 0.110002 -0.02651 -0.0606326 
117 1 11.0301 -0.0332326 -7.21425 -0.0168106 0.00831598 0.00881708 
363 1 -3.1671 11.5511 6.27331 -0.00919383 -0.0145697 0.00220884 
377 1 -5.80815 11.3875 5.55699 0.000981154 0.00884635 0.0128385 
384 1 0.369757 9.90982 7.09631 -0.0228669 0.00328563 -0.0002772 
372 1 0.651559 11.1484 6.19192 -0.0283821 0.0180947 0.0106201 
392 2 2.86508 12.0185 6.05124 0.0413827 0.0451567 -0.0055006 
369 1 -4.57643 10.8839 6.50073 -0.00585547 0.00999235 -0.00848879 
495 2 -5.4387 8.96489 7.79748 -0.0245947 0.0312772 0.0398153 
378 1 -4.55269 9.62924 7.35903 0.0300757 0.00351246 -0.00118223 
382 1 -0.787191 9.05669 7.46197 0.000438668 -0.00770716 0.0229361 
381 1 -3.17044 9.73955 7.70866 0.00245674 -0.0287054 -0.0200826 
396 2 -0.824421 8.00831 7.01329 -0.0189406 0.0579339 -0.0369881 
371 1 -1.67631 10.1919 7.59863 0.00252697 -0.00505399 0.0061369 
365 1 -1.7979 11.0698 6.36198 -0.0175752 0.00263393 -0.02497 
383 1 1.83313 12.0296 5.7618 -0.0167067 -0.00607926 0.00201347 
130 1 11.7577 -2.94772 -10.4811 -0.00596498 -0.00908225 -0.0107756 
366 1 -0.599175 11.3378 5.59362 0.0318805 -0.0122716 0.00297664 
119 1 11.652 -1.86156 -9.32988 -0.00562824 0.00815103 -0.0150655 
143 2 7.2638 -3.52706 -11.7766 0.0182839 0.0575472 -0.0375266 
503 2 3.89971 11.7307 12.0474 0.00551445 0.0293064 -0.118862 
104 2 3.55068 11.4689 12.7828 -0.0868847 -0.026845 -0.071646 
142 2 10.8568 -2.34251 35.6821 -0.018515 0.03416 -0.12471 
388 2 11.5851 16.9183 0.911575 0.0184861 -0.0157171 -0.010428 
387 2 -5.73285 13.8717 2.61222 0.0455573 -0.0460166 -0.0136581 
373 1 -4.81189 13.7544 3.2534 0.0285219 -0.0183704 -0.0107709 
370 1 0.356942 13.4692 4.20481 -0.0148734 0.00110492 -0.00210573 
364 1 -0.657658 12.6992 4.83311 0.0173517 -0.0178594 -0.00981673 
368 1 -2.43457 13.6184 3.19222 -0.00640651 -0.0290083 0.000282642 
376 1 -1.37259 14.3251 2.50451 0.0166436 -0.013924 -0.010245 
362 1 -1.97176 13.0349 4.59157 0.0108215 0.0101309 -0.00523727 
375 1 -3.5646 13.8088 2.6652 -0.0157093 -0.00944058 -0.00407383 
379 1 -0.0341301 14.2799 2.89906 0.00797789 -0.0226255 0.00646218 
361 1 -3.24066 12.6281 5.19397 0.00774208 -0.0199145 0.0184272 
391 2 -1.47161 15.0484 1.71445 -0.0586084 -0.0384953 -0.0585668 
367 1 -4.37296 12.7867 4.40588 -0.00225435 0.0212783 0.00188064 
395 2 2.67239 13.4252 4.32025 0.0975057 -0.0196082 -0.0521042 
380 1 1.70033 12.83 4.70321 0.0386468 0.0201986 -0.00720989 
287 2 -3.34349 28.9076 -4.27719 0.0423343 0.0420979 -0.012746 
33 2 -4.0659 28.6768 -4.28884 0.15102 0.0473641 -0.0523791 
357 2 7.9263 18.2822 4.05561 -0.0625433 -0.076927 -0.068867 
240 1 9.4855 18.0678 2.70489 -0.0077163 -0.000786525 0.00141377 
228 1 10.7372 18.177 2.53886 -0.00687339 0.00232139 0.026739 
252 2 8.77924 17.4727 1.74089 0.0168559 0.0697118 0.0246787 
219 1 11.6595 21.3153 4.59313 0.00272098 0.0289245 -0.0053997 
225 1 10.6675 22.4793 4.6852 0.026818 -0.0150748 0.00194395 
234 1 8.0602 21.4969 4.70833 0.00532589 -0.00170658 -0.00405869 
230 1 11.5929 23.3302 5.44026 0.00271348 0.00958063 0.0118477 
238 1 8.81581 18.7144 3.76561 -0.014092 -0.0168994 -0.0131406 
222 1 11.574 18.9767 3.35888 0.00735137 0.0309854 0.00289919 
237 1 8.53609 21.2137 3.41835 0.0243599 0.0107496 0.0207841 
249 2 8.57759 21.3685 2.43112 0.0476001 0.00140327 0.0031173 
227 1 9.46087 20.0841 3.92927 -0.00774248 0.0193331 0.00890751 
246 2 7.22952 21.8728 5.51425 -0.0375434 -0.0764095 0.120559 
221 1 10.9178 20.1227 3.93162 -0.019289 -0.0102853 0.0125499 
236 1 11.6734 17.5798 1.69809 -0.00997177 0.017962 0.000598828 
374 1 -5.63167 12.0494 4.40541 0.0108077 -0.00240888 0.0127776 
451 1 -11.0697 19.0674 24.199 0.00830937 0.00954213 -0.00426414 
465 2 -7.65961 25.1231 22.1141 0.055672 0.0884571 0.054575 
441 1 -7.1075 24.2261 22.5993 0.02735 0.00387116 0.0144579 
435 1 -8.10326 22.9319 23.1857 0.0144012 0.0154837 0.00303222 
437 1 -9.3525 23.5844 22.9672 0.00291087 0.0128154 -0.000244108 
438 1 -10.4724 22.7997 23.6489 0.00775327 -0.0405706 -0.0149219 
461 2 -7.45032 24.4801 23.5051 0.0189523 -0.0114423 -0.0117085 
449 1 -5.62003 24.4919 22.4521 0.0209688 -1.80156e-05 -0.00251676 
464 2 -5.17502 24.4186 23.5545 0.0295187 0.0463984 0.0430581 
453 1 -11.3004 24.8728 19.1546 0.01074 -0.00316296 0.00826315 
443 1 -9.37231 24.8588 20.7963 -0.00343731 0.0213765 -0.0322088 
450 1 -10.2235 24.9062 19.855 -0.0370967 -0.0236256 0.00387872 
462 2 -8.25218 24.7142 20.5753 0.0130953 -0.0178939 0.0791199 
454 1 -9.98919 24.6861 22.3142 -0.00422536 0.0203195 -0.0214805 
456 1 -11.2751 24.722 22.7338 -0.01434 0.0153772 -0.00603915 
446 1 -5.36141 25.2271 21.416 -0.00596615 -0.000715669 -0.016479 
458 2 -5.14209 25.8854 20.4051 -0.00214427 0.0165156 -0.0355257 
460 2 -9.41299 17.4669 24.4147 -0.0149215 0.0214015 -0.0394444 
459 2 -6.58675 18.4688 25.5375 0.00347358 -0.0383184 -0.035985 
457 2 -5.84333 22.1293 24.2467 0.0374151 -0.0337121 -0.0243309 
439 1 -6.58067 21.5916 24.7513 0.0210281 0.00793225 0.0222121 
433 1 -8.04105 21.9462 24.1409 -0.0248877 -0.0091261 -0.0121131 
434 1 -9.08986 20.9215 24.2009 0.0106425 -0.0210382 0.0182294 
445 1 -6.71274 20.4179 25.2777 0.0165886 0.023051 0.00552518 
447 1 -7.51701 19.271 25.3936 0.0159946 -0.0125441 0.00212509 
440 1 -8.72456 19.5207 24.4682 0.00500295 -0.0188769 0.00776351 
436 1 -10.2267 21.4125 23.7463 0.0293964 0.0131451 -0.0234446 
448 1 -9.74013 18.539 24.4916 0.0130287 -0.0204512 -0.00702141 
442 1 -11.3169 20.2784 23.4311 -0.00725683 0.000989274 0.00536656 
283 2 -2.60115 26.4845 15.4244 -0.00360173 -0.0973092 0.0683031 
278 2 -2.24596 25.8498 14.9093 0.0097132 0.0251927 0.00409564 
444 1 -11.7371 23.3652 23.0775 -0.00806486 -0.0189324 -0.0160659 
466 2 7.02053 31.8607 29.1407 -0.0834209 0.0423036 0.0087253 
105 2 6.32609 32.28 28.4772 -0.113846 -0.0498356 0.0650074 
463 2 -11.7808 18.6745 24.9862 -0.0959434 0.0318544 0.0658333 
431 2 30.0917 10.4168 6.28209 -0.0160215 -0.0151712 0.040722 
35 2 28.3814 -2.09473 10.9654 -0.0201172 0.0475332 0.0680996 
306 1 30.9141 -7.82709 10.6679 -0.00429075 0.00996773 -0.0223621 
129 1 12.6411 -1.41148 -8.56448 -0.0311331 0.0338713 -0.00479099 
141 2 13.5367 -2.03898 -8.99982 0.0498684 0.0739572 -0.034076 
293 1 26.9213 -8.51337 11.0962 -0.0029569 -0.0106006 -0.0144926 
126 1 12.2938 -0.0637318 -7.76399 -0.0166011 0.00130631 0.00173093 
138 2 12.8532 0.938028 -7.62545 -0.0135091 0.0555622 0.0735144 
422 2 30.9707 6.72176 -0.831418 0.0119842 -0.0523857 -0.0597793 
29 2 30.4095 7.63116 -2.4805 -0.023928 0.0589982 0.148939 
14 1 31.1028 7.25904 -1.75155 0.0108537 -0.0168597 0.00149985 
429 2 32.9701 9.6624 -1.82189 -0.00755966 -0.049583 -0.000137021 
403 1 34.0515 9.49126 -1.77622 -0.00371175 -0.00995663 0.00950336 
417 1 35.047 10.0097 -1.3083 -0.0019373 -0.00289854 -0.00448047 
305 1 28.9601 -2.64495 11.8228 0.0179912 0.00411298 -0.0111589 
410 1 32.322 7.43489 -1.63167 0.0299804 0.00946608 0.0126009 
397 1 34.7395 7.18561 -0.47884 -0.0011195 0.00747067 0.00844998 
413 1 33.86 7.73435 -1.68835 0.0147019 0.021708 -0.00433948 
423 2 31.6899 4.83153 5.44036 -0.00623703 -0.0321724 -0.0442575 
409 1 31.6152 4.91486 4.31018 0.00486064 -0.0362793 0.00448311 
424 2 30.5335 5.00912 3.99546 -0.0165434 0.113911 -0.0550657 
419 1 30.3098 10.4321 4.88208 -0.00789986 0.00412757 0.000571004 
425 2 35.2491 5.66339 3.47007 0.0682167 -0.0030647 0.0730034 
400 1 36.0665 6.51836 3.11512 0.00238606 -0.0297869 -0.00160278 
17 1 33.5772 6.59915 0.345353 -0.024021 0.00298688 -0.00376748 
428 2 32.4648 7.79693 5.57697 -0.0980352 0.0279044 -0.0370558 
321 2 26.2896 -7.87033 10.3828 0.0566386 -0.0581669 0.0549264 
398 1 33.8577 6.53531 1.83188 0.00695248 0.0354195 0.0169016 
427 2 32.9413 8.60027 2.59082 -0.00570488 0.015178 -0.122572 
411 1 32.2708 5.73275 3.64762 0.0225383 -0.00888705 -0.00173526 
415 1 35.2919 6.84147 1.9667 0.0292835 -0.0314229 -0.00559324 
406 1 31.7363 8.21074 4.83164 -0.014148 0.0124464 0.00766899 
412 1 32.6906 8.2141 3.65499 0.000546681 -0.0189754 0.00547436 
404 1 33.2301 6.77308 3.2628 0.0352657 -0.023496 0.0362161 
416 1 30.7599 9.45864 5.11559 -0.00808644 0.021807 -0.0122837 
300 1 26.5552 -9.95317 10.9955 0.00457316 0.00711319 -0.00390522 
168 1 30.4861 5.25559 10.4139 -0.0342238 -0.00976536 0.0408184 
322 2 31.2676 -8.81411 11.1336 0.0765644 -0.0207431 0.00719426 
180 2 30.0869 6.22714 10.4466 -0.0887415 0.0183072 0.126882 
309 1 31.0186 -4.58724 12.0074 0.0191895 -0.003721 0.0338827 
318 2 19.4195 0.707841 8.24472 -0.0376268 0.0422139 -0.0936282 
297 1 30.1352 -3.55416 11.7755 -0.0232807 0.0113556 -0.00659049 
317 2 32.049 -4.23303 11.6787 -0.0545095 0.0997948 0.00810002 
156 1 31.2748 4.57364 9.52387 0.00529459 0.000517626 -0.00125471 
389 2 18.7644 0.512154 8.21435 0.0156441 -0.0923628 -0.111752 
310 1 30.7714 -7.06303 11.5151 0.00774271 0.0141622 -0.0306241 
312 1 25.3236 -11.9983 15.5058 0.0261088 -0.012822 -0.00892977 
498 2 24.5399 10.5812 30.4747 0.130532 -0.0354401 0.0646192 
311 1 25.8381 -10.6909 15.4511 -0.00047178 0.00171108 0.0118097 
320 2 26.0031 -7.18852 12.4349 0.0126457 -0.0548574 -0.0695915 
292 1 27.8212 -7.86565 13.4436 0.0154295 -0.00338883 -0.0271484 
298 1 27.4965 -8.65451 14.7657 0.000136564 0.0312554 0.0125878 
308 1 26.5923 -9.67754 15.1152 0.0284723 0.0137864 -0.021514 
294 1 26.7949 -7.88034 12.4171 0.0221987 0.00244691 -0.0141228 
290 1 28.4565 -6.55382 13.8207 0.00954436 0.00777846 0.0178746 
307 1 28.8379 -8.97347 15.4386 0.0116482 -0.00375412 -0.00374815 
539 2 35.2833 6.9489 20.9093 -0.0864598 -0.019178 0.0715771 
319 2 28.8931 -10.0716 15.517 0.0305732 -0.00566646 0.0283474 
296 1 28.8346 -6.66228 15.1902 -0.0132284 -0.0174322 0.0112972 
304 1 29.6898 -7.82655 14.9508 -0.0159322 0.00721242 0.0113381 
245 2 30.0309 -7.45981 14.0393 -0.00437404 0.012759 -0.00353555 
326 1 30.7778 10.6013 23.6735 0.00487145 8.56274e-05 0.00858117 
485 1 24.4281 10.9195 31.5907 0.00140787 -0.0459141 -0.0190035 
291 1 30.2682 -5.78002 12.2107 0.010412 0.000926774 0.00125498 
313 2 27.9528 -6.4181 16.8602 -0.0137263 0.0207598 -0.0967506 
289 1 29.4199 -5.55475 13.5008 0.0203245 -0.0105006 0.0304514 
295 1 29.1684 -4.1619 14.1291 0.0310686 0.00594646 0.0291376 
303 1 28.5867 -5.65117 16.4495 0.0043453 -0.0177431 -0.011193 
301 1 28.4101 -4.24639 15.4275 -0.000211545 0.0237986 0.0211088 
316 2 27.3118 -4.11988 15.2515 -0.0421979 -0.0620301 -0.00371987 
315 2 28.519 -3.43392 16.3269 0.0260335 0.0290447 -0.0923182 
302 1 28.5829 -3.09207 13.1869 0.0180406 -0.021059 -0.00268331 
179 2 34.8625 6.94725 19.9074 0.0451841 -0.0777544 -0.0133904 
339 1 33.5267 9.70829 24.2381 -0.00739015 0.0186018 0.0160862 
332 1 32.3625 10.8415 24.087 -0.0260614 0.00789445 0.0280908 
354 2 27.5903 6.18268 21.1881 0.0199449 -0.0999125 0.0117872 
353 2 30.5105 6.02012 21.2333 -0.0270723 0.0818067 0.0136649 
342 1 28.0835 6.93483 22.0175 -0.011109 0.0110394 0.00149181 
327 1 29.4045 8.66169 23.2262 -0.00952389 0.0236493 -0.0132623 
333 1 29.4862 7.21155 22.6185 0.0133095 -0.0213977 0.00167361 
329 1 28.4145 9.65769 23.0993 0.00763451 -0.00785289 0.0100672 
345 1 26.8824 7.68867 22.4552 -0.0100333 -0.0188573 -0.0323498 
216 2 26.3721 6.9011 22.8238 0.022093 -0.00150566 0.0783403 
335 1 27.0681 9.05673 23.043 -0.00450881 0.0163718 0.0116232 
346 1 26.1376 9.98926 22.4342 -0.00889991 -0.0171479 -0.016289 
348 1 26.267 11.5343 22.6548 -0.00859611 -0.00820659 -0.00668977 
358 2 25.243 9.42409 22.113 -0.0415421 0.0725852 -0.0369029 
328 1 29.7092 11.5947 23.9266 0.00115099 0.00405572 0.0108484 
330 1 28.4461 11.2047 23.4004 0.0147132 0.00925589 -0.00988035 
323 2 28.435 -8.76809 13.0167 0.00172565 -0.0208803 0.0369205 
325 1 30.6711 9.34369 23.2258 0.0146887 0.0197111 0.0205668 
341 1 30.7296 6.74684 22.0745 -0.00549986 -0.0010539 -0.0161984 
349 2 33.4761 7.6193 24.7921 0.00618536 -0.0635503 0.0692606 
351 2 34.4588 10.0957 24.7927 0.0858376 -0.035181 -0.0108997 
331 1 31.9304 8.41763 23.3236 -0.024028 0.00288567 0.0113649 
338 1 31.9026 7.15769 22.5538 -0.00992926 -0.0213573 -0.00057359 
350 2 32.8423 6.64361 22.0376 0.0530091 0.0137692 -0.0406661 
337 1 33.0292 8.42051 24.3396 0.028613 -0.0115373 0.00878493 
482 1 24.2499 11.8332 32.0414 -0.00336663 0.0202478 -0.0258701 
239 1 13.0564 17.5008 1.8657 -0.0100815 0.0242844 -0.0209919 
504 2 28.016 22.8386 8.09929 0.0104348 -0.0589651 -0.0587176 
226 1 13.7203 18.3481 2.75847 -0.0128596 0.0269254 -0.00524295 
251 2 13.8645 17.1641 1.29261 0.0295737 -0.0127173 0.0203269 
235 1 15.2178 17.9356 2.91975 -0.00822745 -0.00335093 -0.00108151 
247 2 15.4216 17.2834 2.17414 0.0722316 -0.0532988 -0.0615565 
218 1 13.8136 20.1363 3.95533 0.0201532 -0.00160863 0.00112923 
231 1 15.8905 20.6929 5.51501 0.0136029 -0.0194997 0.0106688 
229 1 15.1355 21.7115 5.8468 -0.0145309 0.0128945 -0.0144014 
244 2 16.8345 18.5874 3.44827 0.0364135 -0.0195588 -0.0134438 
243 2 16.7592 20.4478 6.00949 0.0501193 0.0497167 0.0515721 
223 1 13.8108 22.1362 5.47796 0.0106462 0.0207801 0.0245552 
232 1 15.7996 19.0118 3.44354 0.00603036 0.01354 -0.0150397 
220 1 13.0426 19.2519 3.18099 0.00600624 -0.0069984 0.0238536 
241 2 15.3283 22.5586 6.32548 -0.00738311 0.0244543 0.0968848 
224 1 15.2493 20.0312 4.33016 -0.00907136 -0.0289746 -0.0260751 
217 1 13.1233 21.2691 4.48219 -0.00443511 -0.02104 -0.0203393 
242 2 13.5108 24.4906 5.84053 0.0297001 0.0880429 0.0386674 
233 1 13.0259 23.4171 5.72729 0.0167588 0.00737437 -0.0117845 
71 2 28.1257 23.8019 7.53129 -0.0118063 0.00819581 -0.0311909 
336 1 27.4765 12.3111 23.1261 0.0324701 0.0028809 -0.00338922 
356 2 28.8395 14.3682 25.4703 -0.0426534 0.0301136 -0.052428 
359 2 27.356 14.3262 23.0027 -0.0391574 0.0132048 0.0336483 
347 1 27.6941 13.6351 23.7329 -0.00227906 -0.0119183 0.0167378 
344 1 28.8487 13.8619 24.4945 -0.00898913 0.017325 0.00933113 
494 2 23.8359 12.985 31.8195 -0.0407528 0.0102885 0.0294778 
343 1 31.2724 13.0296 25.302 0.0175108 -0.0050601 -0.0178282 
68 2 31.7394 14.0241 26.005 0.0242403 -0.0143607 -0.0830125 
334 1 29.9877 12.9163 24.5716 -0.012453 0.00626933 -0.00372739 
324 2 24.3068 35.4363 15.7992 0.0100709 0.0274956 0.0545995 
340 1 32.134 11.958 24.864 -0.00766102 -0.0108011 0.00929971 
360 2 25.567 12.1357 23.246 -0.0251297 -0.0438464 -0.0466196 
99 2 37.9271 -9.21464 -7.35862 -0.0081202 -0.0242281 -0.05872 
530 2 46.0089 -9.18724 -7.39163 0.0185675 -0.00711216 0.0108165 
521 1 46.8424 -7.23486 -6.48307 -0.00813359 0.00493806 -0.00304738 
314 2 47.7701 -6.41426 -6.32741 -0.0080756 -0.112 0.0234309 
533 2 46.0307 -4.93449 -6.45009 0.0393208 0.000929255 0.0643814 
80 1 36.4794 -8.74417 -4.43918 0.0173663 -0.0179231 -0.0222862 
85 1 36.1675 -8.86745 -3.23179 -0.0134627 -0.00704482 0.00961355 
407 1 36.2518 10.1822 -0.948593 -0.00121455 0.0208874 -0.00165577 
108 2 36.944 -7.76312 -7.11058 0.0515323 -0.053368 -0.0231689 
475 1 37.4993 -8.4691 -6.6485 0.00963421 -0.00702827 -0.00467434 
87 1 36.8113 -8.83226 -5.56069 -0.0417563 -0.0226979 -0.0153854 
570 2 43.2324 -6.0908 -0.40542 -0.0167197 -0.00525658 0.0695778 
385 2 42.9238 -5.87444 -1.22142 -0.0309144 0.0344678 0.0196372 
517 1 45.9712 -10.5925 -4.54746 0.010069 0.000134636 0.00481098 
529 2 45.8838 -10.9174 -5.48452 -0.0190798 0.0141426 0.00457517 
511 1 46.2796 -9.18674 -5.08209 0.00745395 -0.0218997 0.00352889 
401 1 36.4845 7.3331 1.09255 -0.010889 0.0170279 0.00398869 
519 1 46.8632 -10.9275 -3.56654 -0.0326372 -0.0097844 0.0133053 
518 1 46.2357 -8.58637 -6.31444 -0.00878436 -0.0299205 0.0299167 
520 1 47.9489 -10.8035 -1.42222 -0.00947981 0.0126061 -0.031695 
512 1 47.3726 -10.33 -2.4243 0.0157256 0.00164288 0.0015401 
506 1 47.4725 -8.94196 -2.77875 0.000413011 -0.0275207 -0.0198389 
505 1 46.7137 -8.32566 -3.67072 0.00409303 0.0171282 -0.0253709 
507 1 46.6114 -6.9482 -3.5186 -0.00192565 0.000230689 0.00562335 
426 2 38.3627 6.85378 3.89356 -0.0109774 0.052258 -0.100012 
508 1 48.047 -8.09171 -1.6989 0.00634177 -0.00655365 -0.0135834 
510 1 48.3535 -6.70553 -1.79647 0.0109636 0.00654152 -0.0168451 
514 1 48.501 -8.75928 -0.617327 -0.0303286 -0.0200647 0.000243827 
103 2 55.4609 -9.28242 0.278307 -0.0375354 0.00736272 -0.0293933 
88 1 55.9309 -10.1562 -0.282339 0.00161551 0.0170433 -0.00637454 
513 1 46.0083 -6.0358 -6.0536 0.000557199 0.0373532 -0.0267239 
522 1 46.5427 -5.8746 -4.60518 -0.00141217 -0.0182704 -0.00519619 
525 1 47.6856 -4.8485 -4.46483 -0.0154785 -0.0185387 -0.00307922 
509 1 47.6749 -6.07195 -2.7074 0.00503869 -0.0114712 0.00148143 
515 1 48.4095 -4.94542 -3.41612 -0.00459938 -0.0115225 -0.023944 
534 2 47.7807 -4.00432 -5.25135 -0.0552854 0.00830414 -0.0129563 
526 1 49.5628 -4.35451 -2.45413 -0.000405995 0.0132922 0.0117592 
528 1 49.9272 -4.90989 -1.15363 -0.00335336 -0.0106535 -0.00243909 
516 1 49.5245 -6.30669 -1.05335 0.00588325 -0.0387843 0.0098969 
538 2 50.9691 -4.61333 -1.26006 0.0703172 0.0945335 -0.0355497 
430 2 38.4597 9.6077 -1.4468 -0.0125014 0.0463929 -0.032848 
420 1 38.798 8.08904 0.230043 0.00310499 0.00908943 0.00280689 
136 2 36.4877 11.2512 -0.444781 -0.076571 0.0237658 0.0300509 
405 1 38.0415 8.84886 -0.699897 0.012507 0.0134878 -0.00784958 
531 2 46.8662 -12.0041 -3.15432 0.0582057 -0.0385549 0.0692217 
414 1 36.5996 8.70491 -0.579672 -0.0114782 -0.00122393 -0.00587576 
536 2 49.1551 -10.614 0.287329 -0.0796625 -0.158996 0.0744907 
523 1 48.4142 -10.195 -0.278255 0.018235 0.0159238 0.00477099 
524 1 49.544 -8.02321 0.296432 0.00302314 -0.00293066 -0.0245371 
527 1 49.3742 -6.57496 0.444834 -0.0207991 0.0296397 0.00601663 
355 2 57.9758 -10.8679 1.45985 0.0112668 -0.0060126 0.0113663 
91 1 56.1963 -11.0943 -0.784294 -0.0140336 -0.0138353 0.0108237 
250 2 40.0266 7.23225 1.22473 0.0820122 -0.0606331 -0.0127489 
408 1 37.6908 7.09408 1.90007 -0.0260985 0.0240263 0.0125543 
402 1 37.4208 6.80722 3.20018 0.032584 0.00341136 -0.00268475 
418 1 39.0346 7.26871 1.14714 -0.00683762 -0.0132668 0.0329259 
74 1 58.3175 -12.0026 1.25844 -0.0140353 -0.0140806 -0.0028832 
537 2 55.1128 0.535391 10.9619 0.0802243 0.0250895 -0.0169734 
100 2 35.8837 -8.88703 -2.26067 -0.0567723 0.0023549 0.0158366 
399 1 36.2178 7.31036 -0.322527 0.0174796 -0.0100476 -0.0117518 
540 2 55.3989 -0.287806 10.7781 0.04455 0.0276955 -0.0821269 
535 2 48.6711 -11.9272 -1.16579 -0.0460016 0.0097422 0.0044928 
66 2 45.8817 19.4792 -9.34236 0.0902686 -0.03752 0.0359791 
47 1 46.7047 18.1259 -10.6533 0.00665835 -0.0118123 -0.00111406 
57 1 46.1645 19.6077 -10.3023 -0.0163632 0.00188996 0.0210726 
58 1 46.9474 20.8294 -10.5152 -0.00800516 0.0162971 -0.0127617 
41 1 47.7114 20.2806 -11.6856 0.013118 -0.00139684 0.00200945 
54 1 48.0436 21.3706 -9.35258 -0.0102051 0.00394553 0.0165943 
69 2 49.3669 22.7922 -8.16868 -0.0142659 -0.0253445 -0.0549651 
60 1 49.168 22.009 -9.13165 -0.000821715 -0.00793066 -0.030832 
56 1 50.0915 22.0266 -11.7971 -0.0105167 -0.0194592 0.01192 
48 1 50.0017 22.3141 -10.4123 -0.00910259 0.0101623 0.00977858 
170 2 46.03 33.3643 -7.11693 0.0499322 0.0188302 -0.0911125 
64 2 46.591 33.7158 -7.87994 0.042871 -0.0350087 0.103535 
94 1 58.8711 31.4917 -1.52747 -0.00121118 -0.0158185 -0.01194 
84 1 57.235 32.8132 -0.452504 0.0026685 -0.00285728 0.00540235 
95 1 56.2861 33.6752 -1.38811 -0.00252748 0.0165145 -0.0264667 
107 2 56.0562 35.3495 -3.14329 0.0503929 -0.00894646 0.0135957 
106 2 57.2281 30.5388 -0.146189 -0.0281191 0.02363 -0.00914489 
96 1 57.558 31.4696 -0.745076 0.00364034 -0.0255711 0.00591188 
78 1 58.2039 33.6834 0.196229 -0.00804384 0.0325242 -0.00488357 
92 1 56.5003 34.9336 -1.90937 0.0354122 0.00465146 0.0300538 
73 1 59.6077 35.47 1.74177 0.0160955 -0.0104332 0.00647471 
76 1 57.8085 35.1962 0.301812 -0.0107417 -0.0133458 0.0013884 
82 1 56.8353 35.7085 -0.708917 0.00414381 0.0036828 -0.000445937 
77 1 59.5751 33.5132 0.104725 0.0143987 -0.00491205 -0.00923154 
102 2 58.9941 32.0538 -2.36518 0.158434 0.0296555 0.0369226 
83 1 59.8683 32.2756 -0.488394 -0.0194141 0.00760935 0.0317022 
70 2 48.3153 22.077 16.034 0.0732803 0.0315377 -0.0548509 
282 2 56.2268 24.736 21.154 -0.0225365 -0.0425817 -0.0218873 
135 2 56.021 24.1776 20.8766 -0.0469187 0.0531962 0.0672676 
63 2 46.9379 23.186 31.9706 0.0198101 0.024054 0.00996523 
211 2 53.3777 24.641 26.5495 -0.0270002 -0.0954338 0.0338955 
196 1 54.2117 25.4483 26.6864 0.010845 -0.00488513 0.00601609 
188 1 54.3148 26.8403 27.5451 -0.00535028 -0.000569554 0.0138427 
207 2 52.7617 27.0428 25.996 -0.0683146 -0.0154935 0.0196867 
195 1 53.3333 27.7362 26.7531 -0.000402163 -0.0231449 0.00252297 
193 1 53.8002 29.2166 27.1965 0.0181461 -0.00937259 0.00585005 
199 1 55.1635 24.7493 27.2887 0.0115704 0.00277425 -0.00244511 
190 1 56.2725 25.0379 28.4319 0.0147244 -0.0157003 0.0151592 
200 1 57.369 24.6733 29.3054 0.000348502 -0.00385166 0.00677917 
192 1 59.768 25.8177 29.6225 -0.00293364 -0.0180189 -0.00496698 
203 1 58.4228 25.7435 29.64 0.0305968 -0.00189455 -0.0155581 
186 1 57.9436 26.9019 28.8475 0.0313055 0.0140409 0.00800265 
191 1 59.5714 28.3172 27.6185 0.00102481 -0.00143205 -0.000707145 
184 1 56.5486 26.471 28.6212 0.00601478 -0.0314327 0.00734389 
185 1 58.3648 28.2012 28.43 -0.00733139 0.00105582 0.0210591 
182 1 55.5044 27.5061 27.9239 0.00061542 0.00532338 -0.01619 
183 1 57.4247 29.2743 27.818 -0.0036909 0.00708904 0.0498768 
181 1 56.0748 28.7824 27.7323 0.000316248 -0.010449 0.00700531 
208 2 53.3071 30.248 26.9882 0.00315324 0.0291487 0.0279362 
65 2 47.1831 17.002 35.662 0.0979104 0.0221362 0.0192999 
198 1 59.2329 30.5254 26.617 0.00524853 -0.00353987 -0.00889661 
189 1 57.8216 30.0021 26.6944 -0.00488215 0.00224027 0.00344462 
209 2 57.3095 31.8885 26.0965 -0.0543106 -0.0395796 -0.00161606 
197 1 56.8103 31.1107 26.3785 -0.00615313 0.0114962 -0.0193937 
206 2 54.9285 32.0113 25.7972 0.0390252 0.0188766 -0.0928346 
194 1 55.393 31.0976 26.571 -0.0010382 -0.0029796 -0.00697755 
187 1 55.0737 29.7676 27.3921 0.00749989 -0.0221825 0.0109034 
61 2 46.5652 17.1495 31.448 -0.0620581 -0.0425043 -0.0487048 
50 1 47.6277 17.3776 31.897 0.000827169 0.0223976 0.00387179 
62 2 49.5931 16.2057 32.5615 0.0279472 0.00768734 -0.00463906 
53 1 48.484 16.6294 32.6625 -0.00212629 0.00479089 0.0135032 
215 2 57.0563 23.5558 29.5788 0.0708943 0.0558723 -0.0157791 
133 2 59.4507 31.2654 25.8343 -0.0349921 -0.210501 0.0134849 
39 1 46.9015 19.3069 35.2312 -0.00856289 -0.0168355 0.0128484 
37 1 47.1685 19.4247 33.9547 0.00424838 0.00262741 0.0187255 
43 1 47.2032 18.6445 32.4372 0.0242545 0.00609532 0.00034917 
49 1 47.2006 19.705 31.4457 -0.0131528 -0.00856114 -0.015336 
52 1 48.7079 22.495 31.7058 -0.000249287 0.0183342 -0.00901499 
55 1 49.8771 22.928 32.513 0.00682596 -0.0191446 0.00546868 
40 1 48.5665 21.6164 34.4704 0.0108789 -0.0256991 0.012632 
59 1 50.6442 22.5357 34.9997 0.0138806 -0.0111528 -0.0329063 
51 1 47.4405 22.2948 31.5848 0.00972988 0.0114178 0.00644751 
46 1 49.6714 22.4061 33.9177 -0.0131746 0.013478 0.00069189 
44 1 46.9636 21.0553 32.3133 0.000772778 -0.00190485 0.0173349 
38 1 47.6177 20.7415 33.5654 0.0206173 -0.00923943 -0.0201169 
42 1 48.7442 21.1297 35.7133 -0.00515063 0.0219709 -0.00783937 
72 2 51.4735 23.3096 35.0239 -0.0545718 0.0316939 -0.09256 
67 2 50.6537 23.5834 32.2907 -0.0894985 0.00196889 0.000993928 
45 1 46.7626 18.0792 35.9486 -0.000779082 0.000416815 -0.0138859 
10 1 77.7358 -3.00012 11.4075 -0.020465 0.0246915 -0.0144685 
79 1 60.0437 -11.8439 3.01551 -0.0169525 0.00174101 -0.00794514 
97 2 59.9125 -10.7784 3.22868 -0.0440774 0.000831043 0.0814453 
25 2 75.0791 -7.57358 11.9797 -0.0572525 0.0193407 -0.0385908 
16 1 76.6998 -5.33566 10.5569 -0.00843351 -0.0105169 0.0112254 
28 2 75.3695 -5.33279 10.5343 -0.0581673 -0.0510781 0.0389298 
19 1 77.1857 -3.98696 10.258 0.000666729 0.00161064 0.0102739 
1 1 76.1428 -5.65615 12.0576 0.0211816 0.000464169 0.01302 
20 1 78.9488 -2.19474 11.3881 -0.0240706 0.0111381 0.0370912 
31 2 77.0194 -3.36874 9.37882 -0.00261009 -0.0633523 -0.0138776 
32 2 79.3404 -1.68828 10.4734 0.0260361 -0.0236865 -0.0572206 
284 2 66.1763 -5.37963 9.94097 -0.0095055 0.0537653 -0.0756257 
248 2 60.332 -11.7499 9.52638 -0.040686 0.0109584 0.0104534 
210 2 66.6802 -5.14366 9.31565 0.0156149 0.0062597 -0.1292 
36 2 79.7626 -0.516985 12.074 0.109053 0.0451854 0.0498192 
161 1 68.3941 -4.75705 17.9984 0.00580528 0.0280777 0.0158934 
153 1 69.2438 -5.86896 18.3894 -0.00935272 0.0178151 -0.0272951 
162 1 70.4168 -6.08056 17.7722 0.00796453 0.0329158 -0.00789841 
493 2 72.8887 -6.12491 16.783 0.0309522 -0.0773306 -0.0593095 
483 1 72.6381 -6.95993 17.5769 0.0261817 -0.013115 0.00151176 
481 1 73.7445 -7.57557 18.0321 -0.0327561 0.0157275 0.0145254 
13 1 75.0108 -6.33905 16.0976 -0.0173468 -0.0029471 -0.0147807 
469 1 75.0523 -7.25085 17.2194 -0.0190627 0.010738 -0.00985642 
471 1 76.2232 -7.95132 17.4852 0.00822028 0.0121408 0.00018047 
477 1 77.5048 -8.60403 16.9208 -0.00514792 -0.000507318 0.00557886 
27 2 74.6524 -8.18453 13.86 -0.13152 0.01682 0.061843 
7 1 74.7999 -7.05752 13.7315 -0.000555926 -0.0323475 -0.00809677 
559 1 76.3434 -4.49217 22.8364 0.0161462 -0.012611 -0.00186846 
488 1 78.7794 -8.75957 17.6079 -0.000282592 0.0288581 -0.00469544 
501 2 79.0652 -9.53475 17.0135 0.00935727 -0.147733 -0.0643735 
173 2 68.8776 -4.50252 16.9846 0.0712637 -0.0359528 -0.0741656 
158 1 66.9126 -5.04859 18.1899 -0.0114934 0.0235038 -0.0184668 
174 2 70.4336 -5.31095 16.9501 0.0067831 -0.00836114 0.0254544 
26 2 75.7502 -4.32167 17.7158 0.0462937 -0.015379 -0.0785609 
15 1 75.016 -5.96836 14.8444 -0.0175787 -0.0403291 0.0237732 
3 1 75.8582 -4.73362 14.3335 -0.0356402 -0.0181496 -0.0207204 
2 1 76.4698 -4.62061 13.0479 0.00270355 -0.0160607 -0.0134168 
18 1 76.0458 -3.81882 16.8589 -0.0224044 -0.0224809 0.0127124 
9 1 76.3863 -4.14837 15.4602 0.0207243 -0.0126064 0.00111532 
5 1 77.4079 -3.12033 15.1238 0.0103355 0.0106509 0.0218686 
4 1 77.0345 -3.39229 12.5872 -0.00562341 -0.0134856 0.0235333 
21 1 76.838 -2.67147 17.1394 0.0135429 0.0163189 -0.0030816 
22 1 78.17 -0.862192 15.7018 0.0245849 0.0054577 -0.0131809 
11 1 77.247 -1.99909 15.8187 -0.0252959 -0.0109006 -0.015282 
6 1 77.719 -2.79699 13.7796 0.0183749 0.0015384 -0.00330202 
23 1 79.076 -1.2696 12.4418 -0.00196796 -0.0284664 -0.0100737 
12 1 78.7775 -1.72641 13.7764 -0.0108285 0.0350909 -0.0218392 
24 1 79.217 -0.589414 14.672 -0.0349083 0.0523268 -0.00902162 
34 2 80.0481 0.00866526 14.8783 0.0322217 -0.0653181 0.0145866 
167 1 66.619 -11.4754 21.6582 0.000280952 -0.00180038 -0.0158451 
393 2 64.9197 -12.2783 20.8034 -0.0927512 -0.0369144 -0.0696611 
169 2 63.7762 -6.80724 22.2241 -0.00872893 0.042905 0.0202739 
157 1 64.9398 -6.22188 20.2545 0.0235822 0.0292019 0.00180002 
159 1 64.6686 -6.6252 21.5774 -0.00829662 0.00893738 -0.0133038 
163 1 64.9611 -9.61306 22.7304 -0.0195405 0.00224338 -0.0010964 
299 1 63.9605 -10.3789 23.0434 -0.00130826 0.000299321 -0.00802558 
172 2 63.2186 -10.1502 23.6116 0.0102411 0.206045 0.0921561 
152 1 65.987 -7.15226 22.0542 -0.0176649 0.00323108 0.0205613 
178 2 64.2554 -11.4098 23.018 0.0120382 -0.0148869 -0.00813143 
8 1 75.2989 -6.73316 12.536 -0.000350724 0.0126868 0.0107876 
165 1 71.3302 -7.05949 18.3423 -0.0184744 -0.0070185 0.0101229 
155 1 71.2231 -7.80649 19.4731 -0.0121217 -0.00216044 0.0222064 
147 1 68.767 -6.59645 19.7047 -0.00524621 0.00703487 0.0351561 
145 1 67.5106 -6.21986 20.2895 0.0125315 0.0023184 0.0148383 
148 1 67.9523 -8.18593 21.6686 -0.00796235 0.0294619 -0.00999761 
149 1 69.6736 -7.58166 19.9891 -0.00420573 0.00856509 -0.0211212 
154 1 67.2431 -9.10004 22.2959 0.0634763 -0.00412602 -0.0139175 
146 1 67.0984 -6.97439 21.2798 0.00980346 -0.00812869 0.0345991 
151 1 66.355 -5.64311 19.4225 -0.00709816 0.0119099 -0.00162631 
150 1 69.0971 -8.49504 20.7804 0.0316295 0.0139069 0.0130417 
160 1 65.8909 -8.50126 22.5925 -0.011733 -0.00475708 0.0238816 
175 2 69.3431 -9.75399 20.6622 -0.0699252 0.0371822 0.001302 
166 1 67.5223 -10.6696 22.4268 -0.0022692 0.00611499 -0.0118454 
476 1 73.471 -8.53021 19.153 -0.0119365 -0.000656032 -0.0229139 
486 1 74.4677 -9.99175 24.1831 -0.00914878 0.00105427 -0.0191739 
479 1 76.0044 -8.81098 18.6047 -0.00545539 -0.00231069 0.0180554 
484 1 72.3473 -8.30926 20.2184 0.0495315 0.0338707 0.00204474 
470 1 74.817 -9.25928 19.3959 -0.02603 -0.00503752 0.0164671 
474 1 77.4588 -8.80054 19.2911 0.00220993 0.017875 0.00224415 
472 1 75.2103 -9.60874 20.8126 0.0135358 -0.0127484 0.00822192 