ITEM: TIMESTEP
610000
ITEM: NUMBER OF ATOMS
576
ITEM: BOX BOUNDS pp pp pp
-1.2000000000000000e+01 8.4000000000000000e+01
-1.2000000000000000e+01 3.6000000000000000e+01
-1.2000000000000000e+01 3.6000000000000000e+01
ITEM: ATOMS id type x y z vx vy vz 
177 2 11.8051 2.42533 -11.8479 -0.0552121 0.00137668 0.0033135 
393 2 -8.87355 -11.1113 29.825 -0.0417777 0.00566414 -0.0600698 
381 1 -9.88003 -11.7248 29.705 0.0158322 0.0193069 0.00325362 
142 2 9.34949 4.77905 30.0838 -0.0188044 -0.0389204 0.00396356 
130 1 10.3299 4.2669 30.2045 -0.0142151 -0.0191798 0.00476371 
132 1 10.6559 3.10869 30.8312 -0.0143013 -0.00542151 0.0199009 
126 1 11.2299 7.8677 31.2539 -0.00645602 2.8836e-06 -0.00512825 
523 1 10.6337 10.0085 28.1154 -0.0217158 0.0236768 0.00570083 
536 2 8.54011 8.90694 28.9835 0.0560194 -0.0355361 -0.0263603 
514 1 10.1987 10.4332 29.3345 -0.0150295 0.00264915 0.0168928 
524 1 8.81116 9.82185 29.3929 -0.00768953 0.00434649 0.0124418 
527 1 8.07928 10.957 29.8498 -0.0116784 -0.00935914 0.0156784 
141 2 9.49265 7.46757 30.0025 0.0258025 0.0212515 0.0227798 
129 1 10.3003 6.99029 30.5952 0.0129312 -0.00117903 -0.00196797 
535 2 9.91162 9.48389 27.4958 -0.0293155 -0.055561 0.0165014 
138 2 11.1591 8.82862 31.5721 0.0124301 -0.0324838 -0.0423701 
119 1 10.8113 5.5851 30.6268 0.0104375 0.000659771 0.0151263 
371 1 -11.2984 -11.58 30.3351 -0.00491823 -0.0134795 0.00825863 
390 2 -11.9397 -9.35413 29.5635 0.0772453 0.0339913 -0.0170724 
120 1 11.6622 2.9784 31.866 -0.0154217 0.0180631 0.0416034 
520 1 11.7007 10.7565 27.6205 0.00113048 -0.0418538 0.00743255 
508 1 10.8057 11.5853 29.9796 0.00533497 0.0273468 -0.00920739 
139 2 11.6046 2.7534 34.5943 -0.0594526 -0.00584468 -0.0768613 
532 2 11.9895 10.6228 26.5607 0.0376504 0.0676096 0.0751492 
114 1 11.9055 4.3796 32.3272 -0.0100004 0.000448139 0.0362598 
113 1 11.9725 5.44963 31.4295 -0.00766761 0.000704256 0.0106249 
80 1 -4.29986 17.806 1.87003 -0.00334843 -0.000314771 -0.0138415 
100 2 -4.05812 17.1825 0.938242 0.0856161 0.0267324 -0.0499807 
85 1 -5.71998 17.6762 2.29029 0.0012107 -0.0135538 -0.0266312 
87 1 -4.73128 18.0855 3.16412 -0.0251769 -0.00786566 -0.0131443 
99 2 -6.69781 16.8055 2.29415 0.0724811 0.0813645 -0.143528 
516 1 8.61955 12.4112 30.2104 -0.00707539 0.0184319 0.00397773 
510 1 9.99942 12.517 30.575 0.018169 0.0169913 0.0213295 
386 2 -9.72726 33.11 32.3543 -0.00277385 0.0216624 -0.0226688 
378 1 -9.71381 35.0576 29.2068 0.0173795 -0.0158773 0.00264807 
389 2 -10.1051 31.7356 29.9584 -0.0463725 -0.0151163 -0.0331255 
495 2 -8.44433 34.911 29.2664 0.0306175 -0.0225442 0.0143474 
538 2 7.43373 15.53 31.0182 -0.0578455 0.0473143 0.129756 
509 1 10.5701 13.7228 31.1942 0.0306142 -0.00813052 -0.0103075 
526 1 8.45128 14.9226 31.035 0.0241884 -0.016871 -0.000894804 
515 1 9.79033 14.88 31.6495 0.0029431 -0.00489735 -0.000788893 
507 1 11.9284 14.0188 30.8015 -0.0036103 -0.00336014 0.0206713 
534 2 9.52414 15.1054 34.0829 -0.00926952 -0.000764101 0.00301635 
525 1 10.0724 15.0854 33.0545 -0.00553319 -0.0202832 0.00382491 
522 1 11.611 14.8208 33.1777 0.00860436 -0.00209958 -0.0144946 
374 1 -10.0509 32.1772 31.8699 -0.0260957 -0.00157243 -0.00537724 
528 1 8.18858 13.6993 30.5979 -0.00466627 0.0189643 -0.00162306 
367 1 -11.5059 31.922 31.8059 -0.013776 0.0267825 0.0133445 
369 1 -10.7328 33.8966 29.5115 -0.0171303 0.00133463 0.0106024 
377 1 -9.9501 32.7498 30.4653 0.0299472 -0.0164442 -0.00488119 
363 1 -11.8359 34.0382 30.2496 0.0154095 -0.0116959 0.00473492 
506 1 12.0295 12.0875 29.2604 0.0155746 -0.0017029 -0.00113461 
575 2 26.7063 -0.970398 11.4993 -0.0565101 -0.0814357 0.0148866 
127 1 12.2394 3.54016 -11.9256 0.010837 -0.00574062 -0.0079765 
136 2 14.1234 4.66344 -10.7956 -0.0598928 -0.0750099 -0.0262689 
553 1 22.4468 3.23195 11.1783 -0.00986181 0.000116675 0.0194675 
546 1 26.2615 -0.0108918 11.1324 -0.0371718 -0.0108936 -0.0254452 
347 1 35.5231 -11.3442 11.337 -0.0315948 -0.0001298 -0.00443104 
343 1 34.758 -11.4067 7.50792 -0.00952316 -0.0113767 -0.0114818 
356 2 34.6899 -9.79849 9.89279 0.00886564 -0.0233558 0.0515748 
344 1 35.1047 -10.859 10.1075 0.000787632 0.010535 0.0114378 
334 1 35.0646 -11.9508 9.09287 -0.0115912 -0.00783623 0.0129813 
576 2 27.5947 -2.66787 7.24361 0.0196781 -0.00184165 -0.00598863 
551 1 25.7755 -0.0531105 8.35385 -0.00781228 -0.00258245 0.00453975 
561 1 24.9328 -0.446182 6.9337 0.011948 -0.00537328 -0.025162 
562 1 26.8758 -0.776019 7.92502 -0.00472545 0.00118845 -0.0105927 
573 2 24.8644 -0.905345 5.99488 0.0196423 -0.00359598 0.00289515 
564 1 27.879 -1.50993 7.32208 -0.0150856 0.0336911 -0.0217682 
541 1 23.6308 1.24827 10.5752 -0.0206335 0.0151773 0.000510077 
421 2 28.8764 -1.06821 7.21842 -0.00442118 0.016959 -0.0622232 
558 1 23.8091 0.361335 7.29953 -0.0135767 -0.00365234 -0.00340064 
570 2 23.5817 1.43893 7.08909 0.00420366 -0.0326147 -0.0273545 
566 2 19.8345 -1.53947 8.50887 -0.0123507 0.0148093 0.0465566 
543 1 23.9144 0.268704 9.58157 -0.0197022 -0.0158416 0.032927 
554 1 20.6823 -0.78339 8.65713 -0.0147333 -0.023473 -0.0164842 
547 1 23.3995 2.61321 10.2919 -0.00480352 -0.0123141 -0.029719 
557 1 21.8788 -0.278644 8.7409 0.0136257 -0.00172831 -0.00523024 
569 2 23.1997 2.65509 8.93961 0.0620592 -0.0855364 0.0015613 
545 1 25.4181 -0.119378 9.90277 -0.00960067 -0.0160668 -0.0121376 
549 1 22.964 0.28371 8.63685 -0.0198473 0.0071772 -0.00302726 
565 2 22.8922 4.22506 10.9289 -0.066788 0.0160165 0.0337919 
124 1 13.1713 4.65368 -11.4864 0.00867309 0.00127381 0.0316853 
504 2 24.5235 -8.89928 -11.8438 0.0305544 0.0474881 -0.0239584 
71 2 23.9511 -9.51648 -11.7657 -0.00192868 -0.0132812 0.043296 
568 2 23.5142 1.88501 15.4072 0.000911684 0.0334275 -0.0638763 
571 2 25.0664 -0.659137 14.995 0.0965319 0.0549738 -0.0458105 
176 2 14.7592 -5.97992 28.0525 0.120475 -0.0764979 -0.0331035 
548 1 22.2688 2.36929 12.4417 0.00545253 -0.0103252 0.0286393 
556 1 24.0049 1.39245 14.3444 0.012598 0.0063274 0.00704861 
555 1 23.4653 1.92703 13.0357 -0.0162443 -0.00354409 -0.011409 
171 2 12.7556 -3.75557 35.4246 0.037783 -0.0371413 -0.00361217 
552 1 27.1838 2.3063 15.0686 -0.0104289 0.00457656 -0.0053024 
560 1 26.8248 1.50835 14.0585 -0.0234996 -0.000331109 0.00406348 
563 1 27.7595 2.71141 16.1966 -0.0300222 -0.00259542 -0.0131242 
544 1 25.5964 0.671915 12.194 0.00205072 0.0223576 -0.0148757 
550 1 26.1436 0.464266 13.5713 0.0192485 0.00207442 0.00660591 
559 1 24.91 0.214638 14.4094 -0.0136836 0.00985709 0.0262462 
572 2 27.5276 4.12433 16.0979 0.0196669 0.0807796 -0.017236 
180 2 19.9798 -6.35662 30.1313 -0.00725502 0.0369895 0.066958 
167 1 17.9814 -4.66699 29.3873 0.0383891 0.0219448 -0.00974832 
164 1 16.8516 -3.87138 29.3849 -0.00582433 -0.00358215 0.00185516 
175 2 14.2304 -1.97387 29.8093 -0.0128503 0.0169037 -0.0133525 
359 2 35.5202 -10.554 11.997 0.0613374 0.0521549 -0.0765644 
143 2 12.8107 1.09898 31.2052 -0.036187 0.0202994 0.0208446 
165 1 17.727 -8.43558 33.8696 0.00359477 -0.0391463 -0.00741166 
155 1 18.0069 -7.66547 32.5729 -0.00423557 0.0106001 -0.00165017 
174 2 18.6652 -9.22029 34.086 -0.0825021 0.049624 0.0260859 
162 1 16.4811 -8.44346 34.2735 0.00878232 -0.0170712 0.0188395 
153 1 15.1139 -7.89903 33.9618 -0.00575342 0.00612586 0.00837558 
149 1 16.917 -6.82651 32.4808 -0.0171283 0.000682412 -0.00704953 
158 1 13.0658 -6.67606 34.7481 -0.0165959 -0.032735 -0.0209961 
147 1 15.403 -6.80983 33.1153 0.0203254 -0.00561184 0.00968891 
161 1 13.7904 -7.75757 34.6586 -0.00372331 -0.015147 0.0126941 
168 1 19.147 -6.53416 30.6272 0.0285995 -0.0250604 0.010702 
117 1 12.7078 7.79491 31.0595 -0.0170568 -0.0142185 0.0183111 
166 1 18.9324 -7.21084 31.769 -0.00431975 0.00219655 0.00139792 
178 2 19.8132 -7.41833 32.2228 -0.0316302 0.0431616 -0.0789909 
109 1 13.7515 6.37092 32.8693 -0.00197206 0.00516054 -0.00503785 
156 1 17.9113 -5.81545 30.5543 0.00555574 -0.000885958 -0.000629879 
121 1 14.791 7.15691 34.6865 -0.0087578 0.0081302 0.00591248 
159 1 14.1811 -3.08737 34.0522 -0.0176678 0.0124097 0.0154727 
163 1 15.093 -2.43509 30.3599 0.0208629 0.00438276 -0.0241719 
172 2 13.3354 -2.25893 31.0592 -0.0061004 -0.0436252 0.032057 
154 1 16.2299 -3.19924 30.5873 -0.00140789 -0.000271864 0.00393107 
152 1 14.7571 -3.38947 32.6968 0.00966781 0.00801202 0.00526612 
148 1 16.4242 -4.36001 31.4246 0.0133836 0.00786114 -0.00947196 
146 1 15.6662 -4.4846 32.5976 0.0174794 0.0246894 0.00866244 
157 1 13.634 -4.1378 34.9137 -0.00515462 0.00534368 -0.00867194 
145 1 14.8009 -5.60722 33.1826 0.0165508 -0.0227254 0.00943648 
150 1 16.7481 -5.86453 31.3448 0.0133952 -0.0254834 -0.0146428 
151 1 13.6186 -5.33715 34.2157 0.00388216 0.0150788 0.0195535 
160 1 14.1872 -2.81435 31.4987 -0.0121971 0.0154257 -0.0118855 
169 2 13.5902 -2.16664 34.2517 0.00878058 -0.105966 0.086402 
140 2 14.0701 3.86503 30.5256 -0.0047145 -0.0506474 0.00437663 
131 1 12.7969 2.10324 31.3557 0.029084 -0.0181379 -0.0225204 
173 2 13.1062 -8.49615 34.8765 0.0659134 -0.0485156 0.0255149 
128 1 13.8737 2.93267 31.117 -0.00854083 0.00528 0.00441888 
567 2 21.3643 2.53057 13.2289 0.0194769 0.0847568 -0.0283453 
118 1 12.1007 3.53117 34.8459 -0.00536248 0.0192441 0.00174457 
512 1 12.6432 11.6539 28.2487 0.0109637 -0.00663567 -0.0104766 
112 1 12.3655 4.51145 33.6629 0.00946877 0.00469899 0.0186771 
170 2 12.1397 -6.992 35.335 0.0159166 0.0274284 -0.0596663 
110 1 13.2724 5.51364 33.9671 -0.0117479 -0.0132216 0.0233487 
116 1 13.7981 5.44131 35.4063 0.0035381 -0.0028511 0.0196674 
125 1 13.5042 9.02198 31.3038 0.0218319 -0.00417867 -0.0085204 
122 1 14.6356 8.68087 32.2612 -0.00174772 0.00311418 0.00377094 
134 2 15.4755 9.51725 32.3012 -0.0268265 -0.0311513 0.10085 
123 1 15.1002 6.5374 35.7685 -0.0201217 -0.00961235 -0.00851465 
111 1 12.7783 6.56164 31.8028 0.0205187 -0.0035591 0.0170619 
137 2 13.1743 10.1317 31.2009 0.0497625 -0.0817556 0.0663713 
115 1 14.462 7.55869 33.386 -0.0187368 -0.00596434 0.0204217 
542 1 24.1922 1.16476 12.0845 0.044326 0.00971581 0.002941 
351 2 35.2628 33.4139 4.41008 -0.0284326 -0.0713378 0.0085987 
328 1 35.0959 34.6532 9.04679 0.0026974 -0.00853953 0.00533257 
340 1 35.172 35.6092 6.69593 0.00103908 0.0130037 -0.000120464 
326 1 35.7463 33.9298 7.99971 0.00549305 -0.00434362 0.00755439 
332 1 35.6439 34.3575 6.56216 0.0152118 -0.0106018 -0.0112837 
144 2 19.8359 32.0769 5.17242 -0.0363336 0.0444559 0.0559987 
339 1 35.404 33.3702 5.60459 -0.0088165 -0.00993335 -0.00705948 
394 2 19.877 32.5236 5.69443 -0.0796802 -0.123004 -0.00923654 
336 1 35.4006 35.2004 11.7473 0.007105 -0.0245242 -0.0279268 
330 1 35.6093 34.2935 10.6168 0.0039576 0.037537 0.00512768 
349 2 35.0558 31.0854 5.55727 0.0172492 0.0156271 0.015185 
337 1 35.2116 32.0623 6.09982 -0.0268803 -4.42042e-05 -0.00686897 
331 1 35.8246 31.7542 7.5128 0.00623484 0.0181051 0.0208397 
350 2 35.7779 29.9092 6.72234 0.0304933 0.00980849 -0.010552 
513 1 12.5467 14.5756 31.9549 -0.0025977 0.017914 0.033151 
468 2 17.3007 14.3426 23.6809 -0.010748 0.0476869 0.00148414 
443 1 18.93 14.4785 24.2504 -0.00520842 0.0248597 0.021864 
453 1 20.462 14.2921 24.1331 -0.0127962 -0.0350608 -0.00639439 
465 2 21.0282 13.391 23.8969 0.0308044 0.0127025 0.100302 
519 1 13.6375 12.8135 27.4218 0.0105695 -0.0137908 -0.0181478 
456 1 16.6638 15.4466 24.0933 -0.00679174 -0.014253 0.0401686 
467 2 13.8777 16.4271 24.9974 0.0616499 -0.0172043 0.00655201 
517 1 14.5891 13.2534 28.4706 -0.0206832 0.00771768 0.00281646 
452 1 14.633 17.1365 26.7425 -0.0114304 0.0230492 -0.0195007 
444 1 16.375 16.4412 24.902 -0.0259464 -0.00634887 -0.00837265 
455 1 14.9103 16.5564 25.5255 -0.000213438 -0.0314102 -0.00149706 
436 1 17.2703 16.9184 27.0529 0.0158665 0.0106817 -0.0152083 
442 1 15.9541 17.602 27.4702 0.0130497 0.0328723 -0.0236827 
438 1 17.3912 16.3131 25.8553 0.0303414 -0.0277089 0.00725858 
434 1 18.5271 17.3858 27.5804 -0.00220184 -0.015344 -0.00172821 
529 2 15.6063 13.7499 27.9998 0.0457977 -0.0244606 -0.047824 
460 2 16.739 19.1416 30.3078 0.0595235 -0.000879692 0.0615105 
539 2 18.1482 30.9207 33.0149 0.0411777 0.0907707 0.0627041 
454 1 18.3075 15.8167 23.9762 0.0136735 -0.00567362 0.00171069 
433 1 19.7578 17.2152 27.414 0.00834206 0.00401023 -0.0138101 
461 2 23.4127 15.6409 26.7574 -0.00449154 0.0149686 0.00173725 
435 1 19.8625 16.4136 26.3138 0.0112134 -0.0114086 -0.0125147 
439 1 20.9789 17.425 28.1949 0.0124613 -0.00964463 -0.0214962 
449 1 22.3865 16.1775 27.0987 0.00785229 0.0230657 -0.0053259 
446 1 22.2159 16.8799 28.262 -0.0182528 0.00997586 0.0113366 
437 1 18.7554 16.3574 25.2633 0.0018001 -0.00591703 -0.0164033 
462 2 22.0329 15.5776 24.1231 0.120888 -0.0634911 0.0816759 
441 1 21.2324 15.9687 26.0948 -0.00995489 -0.0217426 -0.00219696 
450 1 21.4213 15.238 24.9204 -0.00191856 -0.00262179 0.00286841 
458 2 23.0712 16.7751 28.9986 -0.00301996 -0.0116665 -0.0883756 
463 2 15.0883 19.7653 28.0652 -0.0197085 -0.117242 -0.0282724 
451 1 15.7145 18.8434 28.2707 -0.0159122 -0.0070973 -0.00458775 
448 1 16.9624 18.7698 29.1644 -0.00869824 -0.00307281 0.0321244 
440 1 18.2259 18.3035 28.6454 0.0060576 0.00847478 -0.00130193 
457 2 21.528 19.2229 29.5971 0.0645688 -0.00204871 -0.0488004 
445 1 20.7487 18.5214 29.23 -0.000655367 -0.0105143 0.0111856 
459 2 19.148 19.9359 29.674 0.0423867 -0.0263581 0.00404006 
447 1 19.5296 18.9257 29.3338 0.0289677 -0.0101382 0.00456342 
179 2 18.8213 30.9801 33.5782 0.0494433 0.0224849 0.00976647 
521 1 13.9528 14.2968 32.2279 0.0239154 0.0236247 0.0267774 
511 1 13.9945 13.641 29.9981 -0.00460059 -0.0372542 -0.0108883 
518 1 14.8336 14.2521 30.9383 0.0146556 0.0208149 -6.33783e-05 
530 2 15.8238 14.7023 30.6785 0.0428661 0.0602022 0.0128352 
533 2 14.5282 14.8495 33.0443 0.0771483 -0.0318815 0.0146712 
505 1 12.6337 13.43 29.8857 0.0309139 0.00387055 -0.0110434 
348 1 35.8579 34.6101 13.0705 0.0121894 -0.0190216 0.00112892 
360 2 35.2656 35.1047 13.7458 -0.0406935 -0.00692582 0.0203541 
531 2 14.1114 12.7634 26.4756 -0.0471717 -0.00790032 -0.0246724 
263 1 45.4184 -4.28159 -11.354 -0.00299003 -0.0161849 -0.00130256 
286 2 44.6181 -2.16183 -11.7693 0.0312207 -0.0214122 -0.0562757 
270 1 43.7969 -6.35242 -10.8422 -0.0181798 0.0267225 0.0214279 
273 1 44.2042 -5.00072 -10.9501 -0.000815285 0.0143567 0.00646347 
274 1 45.5239 -3.00552 -11.8645 -0.0224364 -0.0282902 -0.00233354 
285 2 43.2359 -4.39104 -10.3929 -0.0470167 0.136089 -0.0118391 
257 1 46.3941 -5.40237 -11.8407 0.00179864 0.00652833 0.0143384 
261 1 44.6785 -7.09008 -11.9472 -0.014416 0.00682425 0.0122231 
271 1 50.3784 -4.82453 33.4561 -0.000301134 -0.00982627 -0.0205369 
272 1 50.0265 -3.55484 35.6227 7.28746e-05 -0.0177797 0.00889122 
284 2 51.2299 -4.04512 33.3799 -0.0510066 0.00209137 -0.118122 
288 2 46.4333 -1.58436 34.4669 -0.0454228 -0.0194759 0.0174241 
269 1 44.5694 -8.1843 34.9483 -0.0203423 0.0213501 0.0120839 
266 1 45.7823 -8.77759 34.4327 -0.010518 -0.00354265 -0.0134482 
255 1 46.0635 -6.75966 35.7882 -0.00630103 0.0202263 -0.0048976 
259 1 47.1826 -8.50737 34.7995 -0.00555584 0.00815423 0.00725801 
253 1 47.3959 -7.08541 35.2428 -0.000735691 0.000184561 0.0225415 
268 1 50.6173 -6.2075 33.5119 -0.0235943 0.00253265 -0.00841025 
254 1 48.3607 -6.57476 34.5582 0.017 0.0018748 0.0132754 
277 2 48.1038 -9.78008 33.5644 -0.0446701 -0.0235319 0.0230464 
265 1 48.4732 -9.07364 34.3749 0.00914529 -0.00158183 -0.00492425 
260 1 49.5057 -7.10368 33.9102 0.0103977 0.0106658 0.0237728 
267 1 49.4015 -8.50262 33.6315 0.0019037 0.0117356 0.00551087 
279 2 49.9746 -9.12807 33.0894 0.068179 0.068399 -0.0733915 
280 2 51.6682 -6.24372 33.059 -0.0172584 0.0648056 0.0459277 
262 1 49.6819 -4.81706 34.7724 -0.00667993 -0.0189699 -0.0144782 
287 2 51.1198 -3.53661 35.622 -0.0214852 0.0385591 -0.0203402 
264 1 47.797 -3.3632 35.7023 0.000500445 -0.0390434 0.00597239 
258 1 47.6894 -4.88542 35.9491 0.00206744 0.00291848 0.0150746 
256 1 48.7094 -5.44939 35.1121 -0.000368561 0.00258938 0.0167886 
275 1 48.9528 -2.97693 35.7192 0.000523743 -0.0142382 -0.0139872 
281 2 43.6646 -8.7678 35.054 0.00921419 0.0204969 0.0700819 
276 1 46.5483 -2.53083 35.1251 -0.00985965 -0.00707843 -0.00724295 
329 1 36.5355 33.3529 10.6895 0.00611834 0.0174796 -0.011388 
333 1 37.2807 31.0442 9.88365 -0.0167839 -0.00427025 0.00732523 
325 1 36.2705 32.6074 8.35667 -0.00739653 0.00548792 0.00390224 
341 1 36.9963 29.9883 8.78262 0.000944163 -0.00624338 -0.0390294 
353 2 37.5215 28.9114 8.73748 0.0585972 0.0546316 -0.0267503 
327 1 36.7759 32.4635 9.55283 0.0142883 0.00204174 0.0269352 
477 1 48.5041 22.8035 -11.594 -0.00010446 0.0240018 -0.0113219 
471 1 48.2142 23.8812 -10.5707 0.0106563 -0.00142613 0.00499005 
479 1 48.9485 23.5436 -9.3363 -0.00823095 -0.0150101 -0.0232073 
474 1 50.0369 22.4514 -9.03147 0.0178033 0.00362938 -0.0121004 
497 2 50.5308 22.1939 -10.0272 0.0185542 -0.0125949 -0.00262303 
473 1 50.6854 23.5127 -8.19998 0.00768844 0.0115026 -0.00836818 
480 1 52.0462 23.9149 -8.5248 0.00355667 -0.0184271 0.00514727 
469 1 47.9112 25.2805 -10.7922 -0.0190915 -0.00579626 0.00457222 
483 1 48.4 27.3768 -9.99202 -0.00515677 -0.000759072 -0.0185804 
481 1 47.5606 26.1627 -9.62504 0.0332539 0.019998 -0.00412556 
499 2 47.9175 27.7867 -7.26815 0.0496738 0.00096751 -0.024368 
493 2 49.1739 27.3367 -10.7731 0.134515 -0.00342361 0.126401 
338 1 36.2508 30.2647 7.77644 -0.00302885 0.00734204 -0.00816171 
476 1 47.8371 25.6791 -8.28448 0.00984788 -0.00162866 -0.00259929 
484 1 48.0234 26.7169 -7.32401 -0.035906 0.00617733 -0.0133088 
470 1 48.6616 24.465 -8.17447 -0.00160282 -0.0277498 0.0023401 
472 1 49.8561 24.298 -7.32116 -0.0116379 -0.0171059 -0.0239985 
478 1 49.8711 25.1613 -6.06634 -0.0256925 -0.0131495 0.0176321 
490 1 53.0857 24.3001 -8.96716 -0.0122647 -0.0163349 0.0152728 
487 1 49.328 26.4232 -6.69966 0.00871874 -0.00325676 0.0171051 
492 1 54.4376 24.4218 -9.49346 0.00189811 0.000385893 -0.0147744 
503 2 49.7788 24.9585 -5.11395 0.0462137 0.0243167 0.0754852 
489 1 54.4856 24.358 -11.0425 0.0244106 -0.027844 -0.0189829 
342 1 37.7061 30.5537 11.0417 -0.00399265 -0.0126414 -0.00384801 
488 1 48.7801 21.1965 -11.4925 0.0256011 0.016957 -0.00219316 
354 2 38.246 29.7223 11.4208 0.0325258 0.0353224 0.0311894 
345 1 37.7762 31.814 11.8615 0.016696 0.0262519 -0.0217681 
502 2 54.2055 24.7611 35.1086 0.00241989 -0.0140918 -0.0508912 
346 1 36.4177 33.4469 13.3655 -0.0136238 0.000139475 0.00418086 
491 1 48.8816 20.2718 35.2197 0.0150831 0.0180169 0.00766793 
358 2 36.0185 32.6174 13.9737 0.00589366 0.0277719 -0.0380048 
496 2 41.592 16.2937 24.804 0.00195712 0.110308 -0.0421991 
216 2 38.2699 31.6154 12.8108 -0.0136502 0.0511838 0.0238624 
35 2 59.6534 14.2059 23.3898 -0.00330331 -0.0138922 0.0385872 
31 2 53.5729 16.1735 25.0409 0.0540155 -0.0415131 0.0496158 
27 2 53.9878 15.9213 27.7861 0.0777245 0.00690813 -0.0378372 
16 1 54.5808 15.5465 24.953 0.0206613 0.0299315 -0.00604573 
28 2 54.876 15.3016 23.8727 0.0862968 0.0173992 -0.14605 
12 1 59.4248 13.8854 25.4727 0.0137241 0.0243582 -0.00443853 
32 2 56.7576 15.0874 23.4507 -0.00660282 -0.0295092 -0.0349432 
1 1 57.8758 15.1083 29.1079 -0.0164119 0.00284575 -0.0182814 
19 1 55.6766 15.2799 25.8164 -0.0162649 0.00726689 -0.0128633 
15 1 54.9299 15.6458 28.4041 -0.00585003 0.00171831 0.00859117 
8 1 55.9642 15.4575 27.4428 0.00358904 0.000279304 0.00195528 
2 1 57.1241 15.3933 27.8319 -0.0145401 0.0134146 -0.00102466 
10 1 57.0072 14.8758 25.5406 0.0193522 -0.0161814 -0.00509005 
4 1 57.8481 14.6451 26.6445 0.0156928 0.0174516 0.0223768 
20 1 57.6022 14.935 24.0797 0.00984995 0.00155317 0.0316611 
5 1 59.9124 14.7285 27.8218 0.00165165 0.0074325 0.00959146 
3 1 59.3826 14.6605 29.1336 0.0174959 0.0275418 -0.0224847 
23 1 58.8661 14.3645 24.1388 -0.00367516 0.00676056 -0.00886766 
6 1 59.0607 14.7559 26.5332 0.0164879 0.00805542 -0.00437505 
9 1 59.8383 13.5658 29.9622 -0.0104634 -0.0262053 0.00953508 
245 2 52.0836 25.7912 25.7284 -0.0262775 -0.0198739 -0.067033 
249 2 53.2785 22.236 27.8017 0.0605214 -0.0375637 0.075717 
236 1 59.1235 23.5897 27.4546 0.0264426 -0.00695115 -6.12895e-05 
246 2 52.4209 24.3203 26.7632 0.00200282 0.0401904 0.00178787 
234 1 53.403 24.131 27.1331 -0.0226017 0.0301611 -0.00172627 
228 1 58.1602 23.9429 28.3289 -0.00648073 -0.00876488 -0.000338674 
237 1 53.759 23.1641 28.0258 -0.00922111 0.0158458 0.0261083 
227 1 55.2067 23.3255 28.6429 0.00696419 -0.00102251 -0.0109407 
221 1 55.8257 24.5083 27.8265 -0.0161069 0.00599022 -0.00568392 
225 1 53.8954 25.4786 26.9134 -0.00162893 0.0239793 0.0193288 
222 1 57.2381 24.684 27.5124 -0.00510465 0.00641973 -0.00683826 
248 2 57.9126 23.2442 29.1436 -0.0457725 -0.0145921 -0.0150969 
233 1 53.2037 25.9105 25.8312 -0.0105021 0.00903188 0.0146904 
242 2 53.8559 27.3138 24.297 0.0873815 -0.0222051 0.0392934 
108 2 48.2551 26.7812 35.6155 0.00611251 0.00943368 0.0367821 
219 1 55.2377 25.7006 27.3223 -0.00160931 -0.00280846 -0.0199038 
217 1 55.9545 26.7019 26.6566 -0.00200142 0.0421732 -0.0181633 
220 1 58.0131 25.5193 26.6706 -0.0108374 0.00420109 -0.0247685 
218 1 57.2503 26.5878 26.1643 -0.00503277 0.0138216 -0.0147225 
230 1 53.8258 26.9308 25.1232 -0.00112947 -0.0133393 0.0356232 
224 1 57.785 27.7203 25.4784 0.0178234 0.00309549 -0.00302438 
223 1 55.2646 27.1813 25.5828 0.0286068 -0.00168719 -0.0181868 
231 1 57.064 28.9358 25.3607 -0.0162612 0.00236367 -0.0261001 
229 1 55.8374 28.4645 25.0087 -0.00845493 0.0330154 -0.0247565 
241 2 55.0962 29.2914 24.8553 -0.0159522 -0.0620339 0.00808799 
243 2 57.7063 29.7717 25.2646 -0.0288195 -0.0340015 -0.00642904 
232 1 59.2527 27.503 25.3055 -0.00502607 -0.00237707 0.000799004 
226 1 59.3884 25.2177 26.0166 -0.0118466 0.0281119 -0.0192708 
7 1 56.7411 14.9523 30.1421 0.0164332 -0.00170329 -0.0129585 
25 2 54.9683 15.2313 30.6197 -0.00621172 0.0640301 0.0372133 
13 1 55.4617 15.6253 29.7171 -0.0113201 0.0188458 0.0180833 
26 2 56.7128 13.9047 30.0251 0.0623415 -0.0792525 -0.0525505 
498 2 49.0834 22.8283 34.5718 -0.00534133 -0.0112127 0.0511012 
482 1 49.0154 25.005 34.9751 0.00589735 0.0260634 -0.00441643 
494 2 49.7393 25.5038 34.3305 0.0136492 0.0855324 0.0218657 
485 1 48.7415 23.6091 35.1096 -0.0395332 0.0188994 0.00254889 
252 2 57.5381 24.1826 30.9712 -0.0676618 0.00134431 -0.00508024 
357 2 56.5701 22.7092 31.7818 0.0605626 0.0386324 -0.0650202 
238 1 55.6932 23.2586 29.8268 -0.00924472 -0.00748381 -0.0152815 
240 1 56.6143 23.4931 30.8475 0.0088471 0.0210885 -0.0157603 
501 2 48.3235 20.1378 34.218 -0.0500091 0.0987459 -0.0655002 
500 2 49.9608 20.0648 35.0422 0.0456147 -0.0874694 -0.0755381 
30 2 59.1289 13.2933 30.8281 -0.0943629 0.0482115 -0.00279407 
244 2 60.0782 28.2462 24.9897 0.0389475 0.0136402 0.0123283 
475 1 48.2006 25.8159 35.8397 0.0281247 -0.00226995 -0.0047281 
335 1 37.0065 32.9632 12.0468 -0.0102859 0.0195384 -0.00313162 
486 1 54.7702 24.3546 35.9256 -0.0105677 0.0108814 -0.00881145 
250 2 69.8621 -8.70376 -3.49025 -0.0269688 -0.0182678 0.0334136 
64 2 62.9927 4.85725 -4.23019 -0.141407 -0.131209 0.0502803 
83 1 61.9453 -10.6528 0.341609 -0.02555 -0.023501 -0.00556665 
93 1 61.2918 -12.0396 0.904051 0.0184831 -0.0103051 0.0171788 
103 2 65.2603 -4.82154 -2.92815 0.109482 0.0276228 -0.0102235 
94 1 61.1238 -10.1671 -0.898192 -0.00203261 -0.000615271 0.00980685 
88 1 64.7444 -4.71849 -1.90536 0.026805 -0.00632874 0.00795248 
77 1 63.1283 -9.8666 0.810268 0.0172513 0.0128582 0.0219833 
78 1 63.1617 -8.41201 0.387046 -0.0159363 -0.0395088 -0.0103227 
84 1 61.9443 -7.74315 0.117946 0.0121052 0.0032656 -0.00382232 
96 1 61.2406 -8.83002 -0.620622 0.00316406 0.0139711 -0.0016073 
91 1 64.6488 -5.48055 -0.811419 -0.0258625 0.0125819 0.000688226 
105 2 67.5309 8.31497 -4.41207 0.166429 0.00481116 0.104375 
466 2 68.2649 8.33823 -5.12339 -0.0517322 0.0489573 -0.0841879 
14 1 68.0179 -4.55151 8.66788 0.0142901 -0.0139441 -0.0265104 
75 1 63.9841 -10.6326 1.52501 -0.0169668 0.015892 0.0248165 
82 1 64.2097 -6.01868 0.331928 0.0121909 -0.0178541 0.00682177 
79 1 65.6097 -10.3221 3.17692 0.0366752 0.000597355 0.0144102 
73 1 64.7161 -9.63183 2.20546 0.00688606 -0.0129916 0.00173371 
74 1 65.3918 -8.50889 1.25793 -0.0308319 0.00556224 0.00221402 
76 1 64.4206 -7.7081 0.659067 0.0217667 -0.0142085 -0.00416309 
355 2 66.437 -8.10864 1.68918 0.0844779 0.0428103 0.0127295 
97 2 66.2381 -9.91675 3.84736 -0.00770161 -0.0423526 0.0586091 
104 2 62.8486 -4.52155 1.17845 -0.0397311 0.0305768 -0.0191722 
92 1 63.0668 -5.5598 0.951894 -0.016822 -0.00269977 0.0220983 
95 1 62.0279 -6.267 0.120314 -0.0151015 -0.00289681 -0.013245 
107 2 61.4058 -5.70359 -0.735321 -0.0576603 0.0101713 -0.0213437 
352 2 73.301 2.99858 1.0192 -0.0191238 0.104053 -0.0983917 
33 2 68.6311 -5.27227 10.4319 -0.118556 -0.0038447 -0.0953176 
17 1 68.8617 -4.53845 9.5176 -0.0016703 -0.00594428 -0.0250581 
574 2 72.2975 3.10308 1.14651 -0.00649075 -0.00698025 -0.0033301 
464 2 62.8822 5.44826 -4.26421 0.0682231 -0.0126197 0.0118356 
106 2 60.2926 -10.8995 -1.34452 0.0961683 -0.0283873 -0.0310133 
29 2 67.1946 -4.94176 7.75516 0.108281 -0.0756395 -0.0415552 
537 2 62.0737 6.71782 -8.09817 0.035983 0.000388408 -0.0499185 
540 2 61.5931 7.2699 -7.57392 0.028529 0.0131768 0.102708 
86 1 65.0511 -11.6723 3.56592 -0.0143986 0.0226695 -0.00439634 
98 2 65.838 -12.0557 4.28448 -0.0602188 -0.0176238 -0.0742237 
282 2 66.3909 -10.9524 -11.9172 0.0790843 -0.0858155 -0.00683722 
212 2 76.1298 10.404 33.5559 -0.0579582 -0.0141858 0.0463471 
215 2 77.9667 11.6403 33.4108 0.0621977 0.0540902 -0.0434129 
306 1 72.5686 -0.131303 23.9974 -0.00714024 -0.00115103 -0.0262367 
317 2 74.3673 -1.52963 22.8834 -0.0780066 0.0324771 0.0184767 
305 1 74.8978 -0.880596 23.5452 -0.0395668 -0.00227588 -0.0113056 
314 2 77.1008 -0.81248 23.1835 -0.0458075 0.011216 -0.126976 
318 2 70.9772 -2.02912 25.9532 -0.00704169 0.0412004 -0.0146075 
299 1 72.0327 -1.72188 26.0723 -0.0262795 -0.0108974 0.0265459 
312 1 72.8723 -0.608359 29.9123 -0.000994113 -0.000566293 0.0165991 
309 1 72.0181 -1.37103 24.6677 0.00339427 -0.0203445 0.00103373 
322 2 72.4826 -1.74008 27.8496 -0.00984118 0.00636402 -0.0719572 
310 1 72.7152 -0.914492 27.2358 0.0163107 0.00511472 0.0127408 
297 1 74.026 0.0550925 24.3778 0.00959462 0.00670163 0.00105873 
321 2 72.526 -1.46524 29.2488 0.0416079 -0.0151052 -0.0156368 
293 1 73.5167 0.365513 26.924 0.0304693 0.0217306 -0.0282628 
291 1 74.3794 0.695809 25.6699 0.00186767 -0.0132906 0.0262643 
300 1 73.6129 0.522829 29.6986 0.00172603 -0.0195043 -0.0232383 
289 1 75.716 1.03573 26.0933 0.000914752 -0.0185202 0.0192535 
290 1 76.0119 1.76097 27.3807 0.0154392 -0.0124367 0.022564 
292 1 74.9345 2.11774 28.3097 0.018371 -0.00431035 -0.0159678 
294 1 74.0101 0.980869 28.2751 0.0294693 0.00355634 -0.00805006 
295 1 76.5777 0.513272 24.9155 -0.0205211 0.00688801 -0.00325365 
302 1 76.2725 -0.504441 23.8556 -0.01139 -0.0111474 0.0019311 
296 1 76.9633 2.44109 27.1744 0.00853699 0.00280644 -0.0169281 
301 1 77.889 1.23011 25.0851 -0.0163858 -0.0138182 -0.0127161 
298 1 75.2975 2.68756 29.6608 0.00749024 0.024107 0.0247762 
304 1 77.5388 3.41255 28.0699 0.0100799 0.0276824 -0.0101205 
316 2 78.5151 3.63095 28.5647 -0.106011 -0.0240061 -0.0200102 
303 1 77.9727 2.37337 26.0816 0.0086524 -0.00256942 0.025144 
315 2 78.7856 3.15759 25.8635 -0.0691951 0.0222871 -0.00635572 
313 2 78.8198 1.07427 24.5072 0.0126009 -0.0200942 -0.0646337 
190 1 74.5588 11.9461 34.5848 -0.00937748 -0.00162336 -0.0082793 
383 1 80.4136 -10.9268 30.8054 0.0123679 0.013661 0.0225846 
372 1 81.8306 -11.3391 30.6455 -0.0052706 -0.00944742 -0.0136908 
395 2 80.1766 -9.98627 30.476 -0.0229479 0.0464734 -0.0426156 
396 2 81.8348 -9.49983 29.5043 0.0855945 -0.000851862 0.0119729 
384 1 82.5001 -10.3763 29.7994 -0.00869689 -0.0223088 -0.0470719 
135 2 65.7804 -11.1524 35.3684 -0.0348188 -0.0176715 0.031761 
283 2 69.7438 -4.37688 27.8808 -0.0352673 -0.0342074 -0.116106 
324 2 72.7704 -0.919796 30.8363 -0.0821885 -0.00990185 0.0674059 
278 2 69.6933 -4.93303 27.4976 -0.0336857 -0.113896 -0.0196712 
323 2 73.2938 0.8513 31.7963 -0.062913 -0.0637471 -0.0124086 
311 1 73.782 1.32094 30.9615 0.0111694 0.00448286 0.00283993 
320 2 75.4421 2.75781 31.9377 0.0404649 -0.107595 -0.052224 
308 1 74.7257 2.40959 31.0209 -0.00673294 0.0136676 -0.0127916 
319 2 76.4657 4.74772 29.3267 -0.0559322 0.0536605 -0.0754783 
307 1 76.2841 3.6691 29.0065 0.0147344 0.0130136 -0.00909133 
208 2 71.9764 11.1816 32.5749 -0.0273233 -0.00971893 0.0689321 
200 1 75.8997 11.5206 34.1361 -0.00833263 -0.00443315 0.00926717 
382 1 84.0304 -10.2962 30.0921 -0.00112541 0.0081404 -0.0162208 
199 1 73.3135 11.236 34.4065 -0.0125601 -0.0157231 -0.0147552 
196 1 72.1635 11.5805 33.7008 0.0193719 0.013028 0.0118424 
211 2 73.6347 10.2048 34.0624 0.0970382 -0.0134908 -0.115484 
380 1 79.7793 -11.8726 31.5159 0.0217341 0.000284007 -0.0023707 
392 2 78.6366 -11.2308 31.3968 -0.0175056 0.0263609 0.00968353 
90 1 62.4804 35.2099 1.08463 -0.0112035 -0.00498379 0.00186064 
62 2 67.9994 16.4748 7.12219 0.000837178 -0.0333836 0.00495041 
53 1 68.3249 17.9816 5.6188 -0.0213407 -0.0119764 -0.00991941 
45 1 67.4197 17.3712 6.67008 0.022488 0.024762 0.0458773 
43 1 67.709 20.25 6.39728 0.0135947 -0.0330404 -0.0101996 
61 2 68.3607 22.4274 6.61002 -0.037869 -0.0592455 0.0119103 
65 2 69.417 19.6526 4.91944 0.0499266 0.0986568 -0.0616865 
50 1 68.5537 19.4642 5.52968 3.18421e-05 0.00916773 0.000840929 
49 1 67.5965 21.7502 6.46234 -0.00572747 -0.0232463 0.000504063 
102 2 63.2308 34.7019 0.457002 0.143276 -0.0426369 0.110141 
89 1 64.3252 35.1207 2.79634 -0.00342754 0.0156893 0.0207712 
101 2 64.7011 34.1721 2.79668 0.0236125 0.0286378 -0.0262932 
51 1 66.2872 22.4341 6.17524 -0.0159342 0.029113 0.00694956 
81 1 63.5715 35.9069 1.82644 0.0208465 0.000725627 0.0128504 
58 1 65.3383 16.3053 9.3031 0.00618409 -9.31076e-05 0.000943342 
60 1 64.0485 16.2413 9.94117 0.00981458 0.024342 0.0135959 
70 2 63.6218 15.7052 10.707 0.00320303 -0.0404318 -0.0766621 
69 2 68.2735 14.3387 10.9651 0.0219556 0.0304135 -0.0148919 
66 2 65.8503 13.9521 8.24336 -0.0655958 0.0448303 -0.0637286 
47 1 65.8169 14.6224 9.16105 -0.0240287 -0.0174691 0.0092984 