ITEM: TIMESTEP
310000
ITEM: NUMBER OF ATOMS
576
ITEM: BOX BOUNDS pp pp pp
-1.2000000000000000e+01 8.4000000000000000e+01
-1.2000000000000000e+01 3.6000000000000000e+01
-1.2000000000000000e+01 3.6000000000000000e+01
ITEM: ATOMS id type x y z vx vy vz 
205 2 -3.53743 2.92649 2.71031 0.00889875 -0.00498332 0.0423868 
207 2 -1.0952 2.01389 3.03457 0.0554577 0.0374588 -0.0167786 
193 1 -2.83494 3.59876 3.27255 -0.00316983 0.00473462 0.0171539 
195 1 -1.56497 2.88045 3.50975 0.0391229 0.00906318 0.0102947 
187 1 -3.08506 5.0283 3.34673 0.00945057 -0.022794 -0.019992 
181 1 -2.47266 5.53042 4.5036 0.00803633 0.00673846 -0.00479186 
188 1 -1.70789 3.16947 5.04694 -0.0153051 0.0173501 0.0180515 
182 1 -2.02453 4.57529 5.51667 0.00831022 0.00960651 -0.029613 
194 1 -3.84593 5.73679 2.20823 -0.0155666 -0.0127844 0.0150308 
206 2 -3.54495 4.96023 1.36154 -0.0372413 -0.0731467 0.0536728 
197 1 -4.36896 6.93108 2.66148 -0.0251151 0.00440823 -0.0266454 
209 2 -4.34217 7.74743 1.84435 -0.0885759 0.117961 -0.0373551 
189 1 -4.28558 7.41552 4.12108 -0.00148603 0.0211909 -0.00912552 
183 1 -3.54438 6.60088 5.02575 -0.0167786 -0.00591067 -0.00295354 
210 2 -5.19469 9.60927 4.51819 0.0248087 0.112614 0.001104 
198 1 -4.98953 8.44158 4.78413 -0.0130655 0.00970345 -0.00474546 
379 1 2.81102 -1.27955 10.3079 0.0224366 -0.00386825 -0.0147845 
391 2 1.93474 -2.0919 10.3725 0.0562374 -0.0302459 0.0333723 
370 1 3.96107 -0.801526 11.1049 -0.0154748 -0.00704076 -0.0190551 
208 2 -1.63805 0.851292 6.21298 -0.0543181 -0.0302225 0.0425445 
212 2 -2.97333 2.77792 9.2933 0.0782923 -0.0401319 0.0165436 
200 1 -2.58956 3.67611 8.92067 0.0108972 0.00516233 -0.0147849 
211 2 -1.61705 1.87309 8.36411 -0.0247346 -0.0245039 0.00293212 
196 1 -1.78734 2.03194 6.10034 -0.0199286 0.00397155 -0.0220094 
199 1 -1.57325 2.39934 7.43452 -0.00283468 0.0149569 -0.00318449 
184 1 -2.16355 4.99692 6.86806 0.00812939 0.0161519 -0.0149416 
190 1 -1.80223 3.83189 7.71733 0.0286201 0.00568172 -1.27682e-05 
203 1 -3.62178 4.50306 9.42384 0.0109389 0.0112793 0.00300542 
192 1 -3.4039 5.90489 8.89172 -0.0217608 0.00273044 -0.0251172 
186 1 -3.13222 5.6943 7.40345 0.000893018 -0.00575821 -0.0150389 
215 2 -4.31785 4.12732 10.1487 0.0598028 -0.010954 0.072689 
361 1 5.10928 2.3412 10.1099 0.0304307 -0.0039338 -0.0143992 
362 1 4.19358 1.44177 10.3774 0.00336587 0.00623159 -0.00235555 
373 1 3.30742 3.54227 8.74602 -0.00384876 -0.0100496 -0.0457422 
375 1 3.19755 2.16042 8.23369 0.0101403 -0.0171743 0.00255807 
385 2 2.65491 4.29595 8.59556 -0.0285228 -0.0465182 -0.0168625 
368 1 3.19663 1.11981 9.57599 0.0019427 -0.0194645 0.00158017 
367 1 4.7929 3.34565 9.22856 0.0265984 -0.0307479 -0.0123501 
374 1 5.87727 4.04272 8.5567 -0.0129575 -0.0190924 2.33151e-05 
376 1 2.46055 -0.195058 9.40959 0.010843 -0.00505043 -0.00454394 
387 2 2.5688 2.19734 7.4104 0.103877 0.0239118 0.000575611 
388 2 1.7323 -0.729215 8.67432 -0.0344626 0.0364597 0.0419737 
364 1 4.58259 0.622232 11.4599 0.00390204 0.0201746 0.0105607 
377 1 6.67942 4.62663 9.52109 0.0047372 0.0105173 -0.00742521 
363 1 6.06412 2.71933 10.8454 0.00849475 0.00649973 -0.00830724 
369 1 7.14993 3.50248 10.3757 0.0214108 -0.0208105 -0.0206272 
495 2 9.51718 3.43712 9.90897 -0.025178 0.0184801 -0.055351 
378 1 8.55793 2.93797 10.3205 0.00638579 -0.00537952 -0.0296241 
185 1 -3.99227 6.505 6.43744 -0.00551522 0.000148831 -0.00783544 
204 1 -4.51646 6.81177 9.00911 -0.0191533 -0.0163124 0.00674803 
191 1 -5.1961 7.18425 6.87895 0.00263674 -0.0273923 -0.00367275 
202 1 -5.6504 7.3141 8.3258 0.0123338 0.000768733 0.0181605 
201 1 -5.71488 8.09341 5.95327 -0.0114315 0.0122038 -0.00757065 
213 2 -6.71115 8.38896 6.70063 0.0644627 0.0425819 -0.0138857 
214 2 -6.22821 7.86537 8.93746 0.0451341 -0.0440182 -0.0420801 
386 2 5.77693 4.34111 7.51074 -0.0240756 0.0125705 -0.0629323 
389 2 7.43118 5.32036 9.25582 0.0287572 -0.0270885 0.0430178 
365 1 6.57396 1.81709 11.8019 -0.000816347 0.0227444 -0.0133423 
108 2 -9.19791 -6.45284 9.28581 0.0462435 0.0339947 -0.00261206 
381 1 8.83469 2.19957 11.3395 0.00105605 -0.0194407 -0.000505991 
393 2 9.99655 2.00529 11.4537 -0.0285487 0.0587413 -0.0541489 
392 2 4.59261 -2.84369 11.4794 0.065587 0.00677071 -0.00826059 
380 1 4.60103 -1.86377 11.8144 0.00187196 -0.0134215 -0.0195556 
366 1 5.64051 0.905248 12.0664 0.0320014 0.00531337 -0.0131549 
395 2 5.8842 -2.29362 13.01 0.0201654 0.0439635 -0.0789019 
371 1 7.74341 1.75164 12.1645 -0.0206264 -0.0127833 0.0201655 
383 1 5.57675 -1.36811 12.8357 -0.0282975 -0.0186749 -0.0167241 
372 1 6.01497 -0.126972 13.1569 -0.00427248 0.0222433 0.00549736 
396 2 7.57134 -0.123489 14.8832 -0.0151282 -0.0578995 -0.0185892 
384 1 7.23692 0.257589 13.8128 0.0178004 -0.00559078 0.0042866 
390 2 9.05426 1.29237 13.9374 0.0526697 0.0688442 -0.122213 
382 1 7.95965 1.60146 13.6205 -0.00670705 -0.0134408 -0.0122093 
394 2 7.70671 2.55398 14.2905 -0.0234762 0.0477865 0.0605058 
488 1 4.65318 14.1029 1.83446 0.00143018 0.009995 -0.00288476 
503 2 6.65399 16.6244 1.73128 -0.0438379 -0.0203113 -0.0102263 
478 1 7.18714 17.3081 2.52429 0.0268073 0.0130769 -0.0173863 
491 1 4.56246 14.4233 2.87582 -0.0190269 -0.0106674 -0.0230658 
472 1 6.75576 16.9908 3.78669 0.00850118 -0.0097393 -0.0175408 
480 1 4.5285 15.5749 3.83758 0.017389 0.0145399 0.0112791 
474 1 5.68662 16.3533 4.47702 0.0204084 0.0493599 0.0015283 
492 1 3.75238 15.5583 5.17839 0.00944004 0.00203383 -0.0134101 
470 1 7.87147 17.8128 4.37572 0.0214627 0.000231451 0.00521719 
500 2 4.93121 14.9865 0.993278 -0.0723127 0.0100506 -0.00378765 
499 2 6.60852 19.3134 1.49852 0.0188249 0.0387791 -0.0142878 
487 1 7.34473 18.6506 2.09457 0.00738817 0.00787633 -0.0092965 
484 1 8.08211 19.5932 2.76205 -0.00162764 0.0033937 -0.00991608 
496 2 8.32535 20.679 2.44182 0.0681471 -0.0239602 0.0279668 
476 1 8.68761 18.9232 3.79454 0.00316851 -0.0116815 0.0110788 
483 1 9.6421 19.7794 4.72297 0.0114985 -0.0166019 -0.0291232 
504 2 2.9937 16.2614 5.51218 -0.0486761 0.02334 -0.0967957 
479 1 5.40243 15.1141 6.80822 0.0167387 0.00123681 -0.0192204 
501 2 5.62461 15.2078 7.95467 0.00142069 -0.000882657 0.0362941 
490 1 3.98768 15.1707 6.60169 -0.00992248 -0.00743261 0.0141379 
502 2 3.03523 14.8004 6.99728 0.0489035 -0.0384741 -0.100906 
473 1 6.08091 15.9191 5.84475 -0.00718282 -0.00816898 -0.00901904 
471 1 7.60861 16.0984 6.21148 0.00698 -0.0150321 -0.0351898 
469 1 8.13268 17.3985 5.82928 0.0291421 -0.00943188 0.00426877 
497 2 10.8766 14.4897 6.40866 -0.0726473 0.0307141 -0.0823725 
477 1 8.50271 15.1542 6.68752 0.000830433 -0.00960891 0.00828783 
485 1 10.0204 15.3067 6.73675 -0.0109178 0.00620762 -0.00280966 
486 1 8.55168 13.9249 7.2787 -0.0103253 -0.000478808 0.0155636 
475 1 9.54393 17.8929 6.09397 -0.00532927 0.0205444 -0.00808954 
482 1 10.3717 16.7187 6.91992 -0.00634646 -0.0138408 -0.0209619 
489 1 7.34834 13.4375 7.88509 0.0142529 0.00485021 -0.0216632 
494 2 11.2087 17.3825 6.80502 0.0104227 0.0509281 0.0642293 
481 1 10.192 19.1784 5.92903 0.00772139 0.0270672 -0.00504589 
493 2 11.25 19.3379 6.41385 0.0326851 -0.0284999 -0.0053947 
498 2 6.8797 13.4179 8.78463 0.0572691 -0.0419664 -0.0865537 
405 1 23.7958 11.6078 10.5316 -0.00342048 -0.0153077 0.0159687 
432 2 27.1666 6.09148 11.5103 -0.00119185 0.0162183 -0.0681479 
576 2 22.5919 3.99398 -10.8929 -0.0343824 0.0112889 -0.0464887 
575 2 22.0946 5.8418 -10.7979 -0.0183995 0.0558158 -0.0122297 
563 1 22.5936 6.53586 -11.3386 0.00611214 0.013358 0.00937991 
572 2 22.9499 8.51214 -10.9715 -0.0450385 -0.0598339 0.0521411 
428 2 21.34 4.836 9.53713 0.034554 -0.157122 -0.014948 
431 2 23.3158 4.93333 10.5602 -0.0403122 -0.0581153 -0.0684973 
400 1 21.691 8.21285 10.7262 -0.0201714 0.0122746 0.0184606 
406 1 20.7288 7.22281 10.0594 -0.00457145 -0.00926707 -0.00943404 
415 1 19.4682 7.37078 10.8338 -0.0218903 0.0089377 0.0183992 
416 1 21.6556 5.94744 9.93733 0.00383485 -0.00826556 -0.00712365 
399 1 23.0903 10.326 10.5763 -0.00504337 -0.0161721 -0.00181872 
427 2 19.2648 6.19162 11.0269 -0.021749 0.0221881 -0.0821317 
398 1 21.2303 9.43919 11.1214 0.00614286 0.00745085 -0.0394013 
397 1 21.8078 10.6081 10.8597 0.0110907 0.0128948 -0.00683183 
402 1 23.1525 8.15955 10.9838 -0.000726157 0.0008923 -0.00213454 
419 1 22.8689 5.89685 10.555 -0.0248369 -0.0102855 0.0152724 
412 1 19.238 8.28958 12.0543 -0.0264541 -0.00189232 0.0202522 
418 1 26.2415 5.67528 11.238 0.0107552 -0.0306486 0.0126839 
404 1 19.6532 9.54479 11.3375 0.00484369 0.00127895 -0.0210517 
407 1 25.4245 9.268 10.5679 -0.0170023 -0.00799556 0.0145057 
408 1 23.812 6.82465 11.202 0.00500512 0.0034875 -0.00298216 
420 1 25.0402 6.26635 11.2148 -0.00441278 0.0085068 -0.0225256 
401 1 23.8165 9.34485 10.3737 -0.0014671 0.00495384 0.00198948 
429 2 25.7646 8.32984 10.2531 -0.0302887 0.0734648 0.185738 
564 1 22.987 4.17566 -11.871 0.0124369 -0.0146629 0.0101238 
417 1 25.928 10.1155 11.399 0.014108 -0.0147651 0.00595678 
560 1 23.1295 7.71856 -11.5045 -0.0194893 -0.00459501 0.0222838 
430 2 26.5724 4.64519 10.9945 -0.0490996 0.00324346 -0.00567387 
540 2 24.1982 -11.8102 -9.38053 0.0745606 -0.0437678 0.0833295 
414 1 24.9746 11.3555 11.2209 -0.0113426 -0.0148162 -0.0161937 
403 1 21.2077 11.9235 10.9872 -0.0336942 -0.00127871 -0.00125696 
426 2 27.1098 10.4282 11.6979 0.030866 0.039344 0.00701534 
411 1 19.2941 10.8722 11.6555 -0.00308603 0.00372963 -0.00972838 
571 2 22.6257 10.1508 -11.9674 0.0959418 -0.00654338 -0.06941 
423 2 18.9687 11.1429 12.6393 -0.0101721 -0.0363339 -0.0241436 
424 2 18.4179 8.12604 12.5164 0.0336029 0.0655467 -0.0463112 
544 1 23.8719 7.3518 34.2208 0.00518391 0.0100646 0.0157381 
219 1 35.3663 6.40777 31.1379 0.0163202 -0.0251821 -0.0031172 
541 1 24.6798 7.14324 32.0978 -0.0106176 0.00514202 0.00137067 
547 1 24.9201 7.5674 30.7571 0.00602786 0.0103273 0.0232235 
179 2 19.3198 -0.188611 20.8927 -0.00212844 -0.00268029 -0.0719698 
569 2 26.4003 5.0058 29.8598 -0.104139 0.0441189 -0.0101678 
247 2 31.09 5.55606 27.0261 0.0190469 0.0760377 0.0790033 
226 1 32.9684 5.10661 28.159 0.020851 0.00865249 0.0146256 
236 1 33.2402 3.76011 27.6271 -0.00994364 0.000545152 0.014546 
239 1 33.7835 2.74625 28.4248 -0.00359946 -0.0118247 0.0111491 
248 2 32.5355 3.50519 27.0329 -0.0505143 -0.00902188 -0.0186244 
220 1 33.4792 5.64854 29.449 0.00341668 0.0343662 0.00655609 
251 2 33.4482 1.90095 27.7792 -0.0165075 -0.0409215 0.0147729 
228 1 34.5199 3.15865 29.6497 -0.00464625 0.00791375 -0.0120397 
222 1 34.2959 4.49695 30.003 -0.00688853 0.000299687 -0.0439819 
567 2 24.0192 10.8539 31.4495 0.0501378 0.0260815 -0.0514875 
566 2 26.1962 7.23021 28.9388 -0.0110523 0.0134095 0.0224489 
553 1 25.3559 9.12137 30.6772 0.0127636 0.0151083 0.0222314 
565 2 24.9799 9.48355 29.7423 -0.0189118 -0.0582707 -0.0223709 
223 1 35.7852 8.73384 30.0068 0.0228143 -0.00943336 -0.00437333 
554 1 25.5618 6.73067 29.7698 -0.00161573 0.00489648 -0.0237429 
235 1 31.9556 6.07753 27.5277 -0.000137513 0.000501603 -0.0105241 
229 1 35.5567 9.54332 28.65 0.0096552 0.02781 0.0137251 
244 2 31.3135 7.94578 26.8937 -0.00083878 0.046055 -0.0126774 
224 1 33.4738 8.13396 28.1127 0.00642308 0.0192107 0.0112557 
232 1 32.238 7.36203 27.4347 0.000265927 0.00818676 -0.00169358 
243 2 33.8211 10.3704 27.7676 -0.00913523 -0.042321 -0.0163791 
231 1 34.1979 9.37791 27.9721 0.00554594 -0.0276228 -0.0212851 
218 1 33.8471 7.04988 29.2043 0.013675 -0.00172003 0.00300206 
552 1 22.9938 5.51366 35.7486 -0.0156437 0.023013 0.00628246 
548 1 24.2285 9.43196 32.9885 -0.00874733 -0.0231617 0.0169659 
546 1 23.4572 6.14389 34.474 -0.00968845 0.0049568 -0.00234812 
556 1 23.4282 10.2451 34.0513 0.0265986 0.0148101 0.00322709 
562 1 23.9512 3.5349 35.6272 -0.000205036 -0.0312152 -0.00223163 
557 1 25.9384 5.65567 30.6254 -0.021182 0.00133623 0.00326749 
543 1 24.607 5.77754 32.5605 -0.00441713 0.0123446 0.0012265 
545 1 24.1903 5.26149 33.8224 0.011736 0.00707699 0.0181521 
549 1 25.1475 4.81944 31.5912 -0.0147288 0.00718717 -0.00972882 
551 1 24.3105 3.82999 34.2596 0.00852044 -0.00814575 -0.00729558 
561 1 24.9244 3.10861 33.0988 0.00217734 -9.20132e-05 0.00573299 
573 2 25.0806 2.04114 32.9242 -0.0266893 8.31226e-05 -0.0705247 
558 1 25.5062 3.48629 31.9378 -0.00949082 -0.00042178 -0.000626393 
570 2 25.971 2.60537 31.5045 0.022303 0.0493369 0.0636248 
221 1 35.0908 4.88587 30.9999 -0.00728379 0.00714169 -0.0209753 
217 1 35.1279 7.30066 29.966 -0.00217653 -0.0169784 0.00799244 
550 1 23.199 8.20826 35.1781 0.00170869 -0.00619878 0.00496585 
559 1 23.1416 9.59731 35.2736 0.0037221 0.0199105 -0.00755742 
542 1 24.1185 8.00012 32.9885 -0.00188795 0.0216769 0.00987506 
240 1 35.8849 2.65571 30.0193 0.00660591 -0.0365995 -0.00222953 
555 1 24.5811 9.79043 31.7228 0.001732 0.0296384 0.0340735 
568 2 23.4653 10.9714 33.4575 -0.0711775 0.0325345 -0.0755035 
574 2 24.1227 2.58274 35.5618 -0.054919 0.129367 -0.0151864 
413 1 23.3775 12.9112 10.9071 0.00203157 -0.0302223 0.0067419 
425 2 24.0004 13.8767 11.0281 -0.00865922 0.0190055 0.0356785 
421 2 19.4457 13.08 11.3133 0.0482337 0.0154713 0.00688267 
422 2 21.8312 14.2833 10.8364 -0.0224051 -0.0497593 0.00121715 
410 1 21.9418 13.1529 10.6869 0.00724289 -0.00852714 -0.0258405 
409 1 20.0112 12.1736 11.2093 0.00538687 -0.00239878 -0.00809296 
537 2 24.4655 35.7437 -8.58013 -0.0982782 0.0270276 -0.0539941 
177 2 13.1507 16.1941 15.8631 0.0110922 -0.100752 -0.0433482 
180 2 27.3727 14.4431 12.2444 0.0834294 0.0562981 0.024593 
167 1 27.9034 13.3721 14.8701 -0.0476734 -0.0091215 0.00818527 
168 1 27 14.9814 13.1972 -0.00714729 0.000216826 -0.00137792 
165 1 25.6752 18.3715 14.6088 -0.00856242 -0.00340402 0.0126793 
147 1 26.4369 17.082 16.7151 -0.00583492 0.00194355 0.00659424 
155 1 26.5548 17.1982 14.4329 0.0368331 0.00566836 0.0207151 
145 1 27.3314 16.7449 17.8001 0.0133819 0.0140289 0.0303213 
149 1 27.0176 16.5697 15.6402 0.00804301 -0.0118026 -0.0202079 
150 1 27.3042 15.2459 15.7384 0.00424656 0.0103312 0.00872529 
146 1 28.0167 15.7391 18.0842 -0.00894707 0.0021997 0.00883147 
156 1 27.0805 14.5275 14.5657 0.0129662 0.00617942 -0.0121871 
148 1 27.9063 14.8705 17.0268 0.0013862 0.0175836 0.00708137 
166 1 26.3962 16.3023 13.1341 -0.0222467 0.0172801 -0.000176158 
154 1 29.0341 13.9797 17.056 0.00213362 0.0258634 0.0123666 
176 2 28.2968 12.5604 14.0451 -0.0215137 -0.00779926 0.0523861 
164 1 28.9288 12.9695 15.829 0.00455095 0.0137611 -0.0110969 
162 1 25.3778 19.2988 15.6744 -0.00365175 -0.00915437 0.00920905 
153 1 26.0187 18.4262 16.7333 -0.00922527 0.0165292 -0.0116955 
174 2 24.6655 19.9427 16.0184 0.0678471 -0.048712 0.0403364 
173 2 24.5403 19.3683 18.0944 -0.133484 0.0836693 -0.0521278 
161 1 25.4197 18.7402 17.9713 0.00796994 -0.0329211 -0.017895 
163 1 29.7989 13.3248 18.1938 0.0198163 -0.00154757 7.166e-05 
151 1 27.2186 17.802 18.9334 0.000435677 -0.0131001 -0.00538971 
157 1 27.8472 17.4675 20.1908 -0.00712442 -8.10436e-05 0.00492787 
152 1 28.9333 15.5202 19.3309 -0.00436876 0.0123031 -0.00856999 
159 1 28.5297 16.1812 20.4568 0.00854713 -0.00111031 0.0157213 
169 2 28.8977 16.2865 21.5807 0.0113276 -0.0533739 0.0425495 
172 2 28.6544 13.1872 19.7013 -0.0552469 -0.0305105 0.0664559 
160 1 29.4169 14.0659 19.2984 -0.0370589 -0.0244709 -0.0105142 
175 2 30.3649 12.5128 17.675 -0.00310992 -0.126157 -0.0276244 
170 2 26.4574 19.5108 19.8185 0.0804178 0.00719541 -0.0323924 
171 2 27.9619 18.2365 20.6748 0.0654876 -0.0218662 0.0076961 
158 1 26.4841 18.888 18.9732 -0.00881872 0.0131285 0.00380165 
178 2 25.7376 16.8848 12.5243 -0.00752203 0.0496397 0.0685478 
316 2 54.8006 -6.63657 -8.70792 -0.0141847 -0.0589243 -0.0338238 
291 1 52.4812 -2.40844 -5.93969 -0.00826959 0.0275173 -0.0101685 
306 1 50.3679 -0.99462 -5.65965 -0.0253127 0.0246253 0.0142239 
297 1 51.6796 -1.20083 -6.24146 -0.00304222 -0.0275915 -0.000939578 
317 2 51.6441 0.667674 -6.80254 -0.0370223 -0.000218207 0.00170347 
305 1 52.3615 -0.229404 -6.9066 0.00437465 0.000949682 0.0587562 
314 2 54.1578 0.502089 -7.58257 -0.0134229 0.0584512 0.0999657 
289 1 53.5543 -2.77528 -6.52906 0.0114406 -0.0171008 -0.000358279 
302 1 53.678 -0.429125 -7.38945 -0.00375301 0.0152695 -0.00827367 
318 2 49.5545 -0.295107 -6.21245 -0.123183 -0.0322262 0.0617115 
315 2 55.2593 -3.98182 -9.73699 -0.0194065 0.0160767 -0.0102317 
290 1 54.269 -3.90157 -6.60395 -0.0159078 0.0112114 0.00587054 
295 1 54.2218 -2.01053 -7.52275 0.00742385 0.0180903 -0.00164656 
301 1 55.2099 -2.31348 -8.36749 -0.0283902 -0.0105664 -0.0202373 
313 2 55.5281 -1.47875 -9.11948 0.0392041 0.0389346 -0.11182 
303 1 54.8897 -3.67342 -8.77924 0.0142584 -0.0219973 0.00588027 
296 1 54.7104 -4.59667 -7.69479 0.0072763 -0.00353376 -0.0175212 
304 1 54.828 -6.08536 -7.66233 -0.00284192 0.0181683 -0.0144817 
135 2 41.4655 3.61406 -7.77065 0.0252088 0.000399749 0.0334044 
282 2 41.4453 4.15709 -6.66311 0.037628 -0.105504 -0.0256248 
320 2 56.2355 -6.48747 -3.5171 -0.0596149 -0.0790605 -0.0620317 
308 1 55.3079 -6.04228 -3.77425 0.00346427 0.00372423 0.0264672 
319 2 55.1738 -7.75362 -6.21613 -0.0129624 -0.0149318 -0.0180135 
307 1 55.12 -6.65148 -6.36909 -0.0101295 0.0187226 0.00643463 
323 2 53.9412 -6.30702 -2.1032 0.0112771 0.0690677 -0.0180643 
293 1 52.282 -3.25188 -4.88554 -0.00613834 0.0231684 -0.0152631 
299 1 51.2761 -2.69699 -4.21092 0.0289185 -0.0228012 0.011209 
309 1 49.9608 -2.01554 -4.70692 -0.016359 -0.000196597 0.0190543 
322 2 50.5177 -3.8492 -3.05291 0.0229422 -0.0148413 0.0368253 
321 2 49.0127 -1.45935 -4.57487 0.0147682 -0.0290924 0.0316261 
310 1 51.4054 -3.0769 -2.80099 0.0284318 -0.0137994 -0.0179756 
294 1 53.4492 -3.83504 -4.47991 0.0149271 -0.024585 -0.00471991 
312 1 52.2398 -4.20148 -2.33514 0.0156262 -0.0167417 0.00832247 
292 1 54.3418 -4.49318 -5.28058 0.0115226 0.0176446 -0.0140903 
300 1 53.4355 -4.54596 -3.26184 0.00738385 -0.0055289 0.00568529 
324 2 51.6993 -4.86338 -1.53359 0.0776541 -0.00105959 -0.0861456 
311 1 54.1435 -5.72682 -2.95315 -0.00702229 0.0163889 -0.00451467 
298 1 55.159 -5.64425 -5.16063 -0.0035174 -0.0195336 0.0442807 
105 2 53.2515 -10.1575 -11.3851 0.0088135 -0.0244647 0.00677127 
360 2 40.6953 -9.11331 16.5285 -0.101212 -0.00168149 0.0703334 
356 2 41.7375 -4.8228 17.2206 -0.0744368 0.00811898 -0.0198229 
357 2 37.7216 -11.364 19.8283 -0.0344383 -0.0724412 -0.0517148 
345 1 37.731 -10.2837 20.3274 0.0168623 0.022578 -0.010029 
354 2 36.7778 -10.3607 22.512 -0.000204279 -0.0300455 0.0451813 
342 1 37.553 -9.95655 21.7243 0.00464755 0.031676 0.00506986 
335 1 39.172 -9.8948 19.8905 -0.00869742 -0.0311127 -0.00938891 
346 1 40.0653 -9.9639 18.5026 -0.0242368 -0.00192287 -0.00399328 
333 1 38.2942 -8.83207 22.3742 0.00528517 -0.00514366 -0.00796323 
327 1 38.957 -8.05725 21.3363 0.0284668 -0.0122391 0.00170163 
329 1 39.5769 -8.61016 20.1987 -0.0133555 0.00902396 0.0139556 
341 1 39.0182 -8.87423 23.7043 0.00491024 -0.0163115 -0.0101241 
330 1 40.043 -7.42427 19.4246 -0.0146953 0.00347553 0.00400456 
336 1 40.2585 -7.5559 18.0618 0.00858026 -0.0166468 0.0044607 
348 1 40.0598 -8.9702 17.4352 -0.018584 -0.0171338 -0.0204038 
358 2 40.6143 -10.918 18.2706 0.0172493 -0.0184314 -0.0796842 
325 1 38.7141 -6.7838 21.9919 -0.00768861 -0.0118246 -0.000770198 
331 1 38.6423 -6.83217 23.4057 -0.00271974 -0.0328266 0.0108538 
359 2 41.7376 -7.00748 16.3748 0.0217259 0.0533586 -0.0711123 
347 1 41.1108 -6.80848 17.3783 0.010492 -0.0153629 -0.0230167 
326 1 39.4236 -5.86335 21.101 -0.00768807 -0.0183757 -0.00758379 
332 1 39.2959 -4.73913 21.909 -0.022179 0.0245095 -0.0211435 
328 1 40.0228 -6.09754 19.8499 0.0295306 -0.00680924 -0.00690049 
334 1 40.9446 -5.32748 19.3343 -0.019024 -0.0228118 -0.00167169 
343 1 40.6555 -4.00443 19.9486 0.00128371 0.00938823 0.0051355 
355 2 41.3236 -3.47469 19.0708 -0.018469 0.00916107 0.116124 
344 1 41.3377 -5.46326 17.9454 -0.0260844 -0.00965868 -0.00307663 
340 1 40.282 -3.86094 21.2477 -0.00328242 0.00677218 0.0223657 
352 2 40.3156 -2.82877 21.4892 0.0233878 -0.0972943 0.0125973 
339 1 38.4503 -4.18312 22.9962 -0.0338135 -0.00256504 -0.00678623 
337 1 38.3325 -5.46855 23.6082 -0.0127979 -0.00680926 -0.0127401 
68 2 49.1351 3.34274 18.9825 0.0251794 -0.0718742 -0.00515512 
72 2 48.6339 4.78977 22.3446 -0.0376205 -0.021481 0.0107536 
46 1 51.0682 3.03231 21.8474 0.0102732 0.0126015 0.010852 
44 1 52.9998 3.98576 24.0229 -0.00497258 0.0251064 -0.0240882 
40 1 50.7435 3.11923 23.2318 -0.0224701 -0.00642785 0.00797486 
48 1 48.415 4.06896 23.4164 -0.0071829 -0.00868668 -0.016165 
52 1 52.9222 4.2293 22.4537 -0.00426152 0.0231259 -0.0373069 
55 1 52.2177 3.66824 21.1951 0.0272707 -0.0134128 -0.0192611 
67 2 51.7277 4.12717 20.3375 -0.0147663 0.0140365 -0.0243041 
56 1 49.9956 2.54622 20.8856 0.012275 0.00467156 -0.00992824 
59 1 49.4995 2.34068 19.5345 0.00287695 -0.0306943 -0.0065393 
38 1 51.7324 3.47001 24.3755 -0.00771429 -0.00488324 0.0237685 
64 2 53.174 5.34563 22.4241 -0.0706589 0.0803616 -0.00821229 
63 2 55.0043 3.9177 23.5277 -0.0596696 -0.00105036 0.092016 
353 2 38.9766 -9.64486 24.4459 0.0272819 0.032967 -0.0601539 
338 1 39.4747 -7.61004 24.1982 0.00378329 0.0161922 0.0264322 
349 2 38.6217 -5.4091 24.6854 0.0198503 -0.0505682 -0.0352541 
350 2 39.4786 -7.5815 25.3863 -0.0577164 0.0699706 0.0326521 
351 2 38.4282 -3.38508 23.884 0.00503879 0.0062281 0.0285266 
230 1 36.6643 8.92187 31.0879 -0.0200424 0.0267479 0.00257846 
70 2 46.0139 4.46104 25.3484 -0.058926 0.0351257 -0.00567454 
60 1 47.4189 4.03634 23.9606 0.00293469 0.00159602 0.00625828 
58 1 46.9418 3.90784 25.252 0.00171203 0.000156883 -0.00487475 
69 2 46.6788 1.87674 27.3946 0.0659068 -0.0248506 0.00681823 
42 1 49.5868 3.34661 23.8933 -0.00119298 0.0165831 0.018938 
37 1 51.4867 3.14285 25.7669 -0.0295876 -0.0336893 0.0228553 
54 1 48.6429 2.38419 28.2465 0.00584889 0.00120237 -0.012699 
39 1 50.0593 3.05408 26.2734 -0.00422541 -0.00770629 -0.004258 
57 1 47.5784 2.49752 27.3246 0.0159764 0.025188 0.00910153 
41 1 49.0645 2.85956 25.3004 0.00672489 0.0146144 0.0142385 
47 1 47.7458 2.80477 25.8114 -0.0233381 -0.00352495 0.0168955 
66 2 48.6459 2.86896 29.2612 -0.0152298 0.0173214 0.0710669 
45 1 49.9544 2.68876 27.6805 -0.00321503 0.00865892 -0.0194102 
53 1 51.3015 2.63838 28.5062 -0.0289039 0.00101196 -0.0191497 
43 1 52.7166 3.29453 26.4078 0.0028614 -0.026062 0.0280254 
65 2 51.5765 2.692 29.688 -0.0271368 0.014546 -0.070211 
62 2 53.3525 2.35504 28.6724 -0.0725575 0.0899971 0.00901898 
50 1 52.541 2.92661 27.9635 -0.00711958 0.00415711 0.0060705 
51 1 54.2883 3.79363 24.6104 0.00475958 -0.0170892 0.0129773 
61 2 54.8306 3.2685 26.6335 0.005558 -0.0260276 0.0481941 
49 1 54.0166 3.42671 26.0228 -0.0116606 -0.00560314 0.00136091 
242 2 37.3096 9.87955 30.7276 -0.0128259 -0.0460007 -0.0348881 
227 1 36.2051 4.13852 31.4615 0.00319562 -0.0284711 -0.000919952 
250 2 36.6192 1.83937 32.2262 -0.0210204 -0.0606361 -0.042669 
249 2 38.1869 3.92054 32.1174 -0.0173587 -0.044483 -0.0476685 
237 1 37.5133 4.80026 32.0399 0.00794496 0.0159375 0.00339141 
238 1 36.2662 2.58306 31.5412 -0.0115942 0.00129259 0.0261092 
246 2 38.4879 6.34276 33.1693 0.0275086 0.0355954 -0.052257 
233 1 37.1151 8.09386 32.1699 -0.0313759 -0.0211467 0.00182319 
245 2 37.8134 8.54173 32.8848 0.00201365 -0.00792388 -0.0675317 
234 1 37.5511 5.93633 32.6288 0.0157548 0.0188861 -0.0166366 
225 1 36.4845 6.77316 32.0247 -0.0157435 -0.00664876 0.00892372 
252 2 36.5625 2.59202 29.1019 0.0758302 -0.0650966 -0.0018792 
241 2 36.688 10.0562 28.8345 -0.0831356 0.0604566 0.0108081 
539 2 54.2918 32.1153 -8.6538 -0.0201715 0.0455237 0.0354673 
527 1 54.3722 32.3794 -9.74724 0.0167364 0.0302239 0.00719909 
536 2 52.255 31.8803 -10.4054 0.0184003 -0.0833166 -0.00077677 
524 1 53.3429 32.1861 -10.5456 0.0125412 0.0047106 -0.0117474 
538 2 56.9131 34.1855 -9.25238 0.0707851 -0.0216629 0.0653223 
528 1 57.0356 33.1352 -9.4126 -0.00258625 0.0187331 0.016985 
526 1 58.2648 33.1132 -10.0908 0.0314131 -0.0115537 0.0107144 
515 1 58.566 32.7272 -11.6352 0.0136397 -0.00840717 -0.0165376 
510 1 55.985 32.649 -11.7231 0.00164284 0.0249799 0.00460602 
516 1 55.6349 32.8017 -10.3013 0.00455815 -0.00154432 -0.0124561 
514 1 53.5737 32.5344 -11.9615 0.0113685 0.0122828 -0.0185773 
97 2 59.2788 32.6976 20.108 -0.0291689 -0.0320343 -0.0269333 
521 1 59.0429 33.1442 32.3386 0.00795497 -0.00654171 -0.0158997 
535 2 51.5553 32.2906 35.8936 0.018733 -0.0234265 0.0692078 
532 2 51.7052 31.6328 33.2555 -0.0963793 -0.0114708 -0.047029 
506 1 55.1886 32.0173 34.0365 0.00356939 -0.0101146 0.0205607 
523 1 52.4026 32.2713 35.2734 -0.0032542 0.0229921 -0.00582184 
520 1 52.6612 31.8867 33.9776 0.00235151 0.0142031 0.0139726 
531 2 53.7475 32.5071 31.1168 0.00125882 -0.0354056 -0.0267699 
525 1 59.7091 32.5143 35.5995 -0.00422469 0.00839399 0.0210993 
519 1 54.4107 32.3848 31.9831 -0.00484305 0.00279101 0.0198659 
529 2 56.1161 31.5599 30.6623 0.0149474 0.00482968 0.0795395 
530 2 57.9406 33.9635 30.3284 0.0242298 -0.032373 -0.00641506 
507 1 57.5425 32.9657 34.4146 -0.00217116 0.0129782 0.0226128 
512 1 53.9003 31.7807 33.2552 0.000170565 0.00777112 -0.0119732 
511 1 56.7224 33.0079 32.1382 0.00738496 -0.00627242 -0.0113563 
505 1 56.3758 32.7666 33.6114 0.0172482 -0.0359438 0.00728104 
508 1 54.9133 32.5911 35.3548 -0.0176763 -0.024687 0.0378386 
509 1 57.3345 33.1642 35.8021 -0.000321125 0.0110125 0.00156647 
513 1 58.7958 32.8345 33.6525 -0.000181286 0.0230798 0.0180674 
518 1 57.9683 33.6561 31.404 -0.00831904 -0.00765715 -0.0458511 
517 1 55.7565 32.1686 31.4832 -0.0168204 -0.00198164 0.00450018 
99 2 59.7472 31.0149 21.7476 0.111245 0.0174444 -0.0559627 
283 2 67.9268 -10.7881 -6.79172 0.00195525 0.0516128 0.0112508 
262 1 69.8723 -10.1168 -7.6826 -0.00502843 -0.0008513 0.0100846 
271 1 68.7829 -11.0736 -7.33209 -0.0162161 -0.00265261 -0.00590474 
275 1 69.8823 -7.83662 -9.09597 -0.0105498 0.0253406 0.0206819 
272 1 69.6271 -8.56554 -7.89707 -0.00833711 0.00807068 0.00639206 
284 2 68.7284 -8.62897 -7.33244 -0.0290944 0.0188144 -0.0506228 
256 1 71.0679 -10.5019 -8.45233 0.0117873 0.00154717 -0.00887287 
287 2 69.6427 -6.84795 -9.53278 0.00379824 -0.00413856 -0.107102 
264 1 70.9655 -8.40883 -9.97572 0.0118177 -0.017539 0.0138951 
71 2 70.3731 -2.87112 -1.23619 0.103533 -0.00360583 0.0392595 
288 2 71.189 -6.3865 -10.2785 -0.0248043 -0.0905886 0.113823 
261 1 74.7804 -11.4043 -9.39393 -0.00702567 0.0021346 0.0168298 
255 1 73.5356 -10.9722 -8.80783 -0.0159331 -0.0202973 -0.00154981 
276 1 71.776 -7.33048 -10.4138 -0.0107176 -0.00804653 -0.00745433 
258 1 71.5174 -9.67153 -9.49043 0.00498685 0.0218679 0.0213582 
270 1 75.48 -10.5124 -10.1723 -0.0240544 0.00989385 0.0070014 
257 1 72.8414 -9.86411 -9.64468 -0.00396714 -0.00645505 0.00593699 
285 2 76.0887 -8.42232 -10.3696 -0.0632874 -0.0163164 -0.0354794 
274 1 73.1762 -7.58021 -10.5595 -0.0234865 -0.00263374 0.025055 
263 1 73.8349 -8.89493 -10.1459 -0.00156227 0.000821644 -0.00331646 
286 2 73.7307 -6.6327 -10.4716 -0.068628 0.0496077 -0.0363847 
273 1 75.2332 -9.21703 -10.4202 0.0024953 -0.0277865 -0.0020063 
127 1 72.2153 10.1601 -9.35954 0.0224757 -0.00422791 0.0145072 
139 2 72.6026 9.02192 -9.48084 -0.012877 -0.00790558 0.0228052 
124 1 71.6726 10.574 -10.7805 0.000388813 0.00356475 0.0140582 
136 2 71.8525 10.143 -11.7338 -0.0260161 0.0443132 0.0301909 
116 1 71.8975 11.9586 -11.0183 -0.00401294 0.0110262 -0.00164451 
118 1 72.0181 10.8155 -8.07976 -0.0191133 -0.0034988 0.00520972 
140 2 71.8341 9.17274 -6.24634 -0.0441158 0.0758832 0.0522513 
128 1 72.0893 10.1412 -6.74614 -0.00422217 -0.0217571 0.00142766 
26 2 61.5791 11.3084 -1.49251 -0.0492472 -0.076702 0.00806062 
143 2 73.4772 10.1278 -5.21466 0.0389357 0.0929705 -0.0975692 
131 1 72.9923 10.7002 -5.9478 0.0181741 0.00547591 0.00746811 
462 2 70.2519 7.42566 2.83873 -0.0340948 -0.0184345 0.00755677 
461 2 71.6428 5.00066 4.25385 0.0117592 0.0449838 0.0498992 
449 1 72.5667 5.35324 3.97149 0.00613954 0.000933747 -0.0207749 
446 1 73.6919 4.56887 3.97633 0.00401128 -0.0221067 -0.00107708 
458 2 73.646 3.43585 4.34048 -0.0156783 0.00929083 -0.0185326 
447 1 76.8668 5.69661 2.7608 0.0379025 -0.0237085 -0.0118025 
459 2 77.5141 5.29241 2.06309 0.0190616 0.0164261 -0.0374068 
457 2 75.886 3.55148 2.99434 -0.00108646 0.0107652 0.0361373 
439 1 74.7687 5.47894 3.36863 -0.00433314 0.0149159 -0.0320735 
445 1 75.9434 4.62979 3.26384 0.00394913 -0.00555757 -0.00229342 
15 1 63.3662 11.4358 2.60089 0.0195314 0.00341294 0.0116878 
25 2 61.8378 10.4803 1.30792 -0.0859051 -0.0110225 -0.0659158 
13 1 62.6274 11.2084 1.34396 -0.020959 0.0214865 0.000483436 
27 2 63.248 10.8915 3.38001 0.00126973 0.00940075 0.0215502 
453 1 70.7582 8.78352 4.20691 -0.0103994 0.000827953 -0.00305921 
454 1 71.8236 10.8566 5.37873 0.00827406 0.000155965 -0.0170135 
466 2 70.8402 11.388 5.05494 0.00062588 -0.00525343 -0.0170548 
443 1 71.9591 9.496 4.65694 -0.0103939 -0.000798534 -0.00748475 
441 1 72.198 6.64169 3.41745 0.0184576 0.0291386 0.0109497 
465 2 69.7083 9.20316 4.05031 -0.0432612 0.0622877 -0.0749573 
450 1 71.2169 7.68159 3.27425 -0.00884057 -0.0202477 -0.00823271 
456 1 73.0715 11.6254 5.0186 0.000516832 -0.00811806 -0.00293711 
440 1 76.742 7.19551 2.56306 0.0195322 0.00327168 0.00116484 
437 1 73.1103 9.01681 3.89553 0.0151522 -0.00292383 0.00481657 
435 1 73.3366 7.52584 3.55773 0.00329847 0.00471054 -0.0253037 
433 1 74.4839 6.846 2.96669 -0.0270231 0.00276503 0.00182288 
448 1 77.6644 7.92429 1.66607 -0.00335679 0.0210729 0.00933912 
460 2 78.505 7.27871 1.26869 -0.0485432 0.093757 -0.0865773 
451 1 77.3801 9.20971 1.16158 0.00870727 0.0277548 -0.0170605 
463 2 77.7922 10.1815 0.374628 -0.114601 -0.0525797 0.0725257 
444 1 73.8803 11.1334 3.89619 0.00652439 -0.0207164 0.00525793 
455 1 74.7669 11.7124 2.87117 -0.00229712 0.0091283 0.0348326 
436 1 75.3167 9.12206 2.69342 0.0249553 0.0318772 -0.00311899 
438 1 74.2635 9.69168 3.6492 0.014335 -0.00188314 -0.0183831 
442 1 76.182 9.73219 1.85883 0.0202712 -0.017176 -0.00917257 
452 1 75.8228 11.2607 2.01891 0.00910817 0.0217159 -0.0156794 
464 2 75.884 11.7219 0.99866 -0.0177773 -0.0276894 0.0125961 
434 1 75.361 7.69503 2.42127 -0.00636804 0.00214369 0.0216693 