ITEM: TIMESTEP
570000
ITEM: NUMBER OF ATOMS
576
ITEM: BOX BOUNDS pp pp pp
-1.2000000000000000e+01 8.4000000000000000e+01
-1.2000000000000000e+01 3.6000000000000000e+01
-1.2000000000000000e+01 3.6000000000000000e+01
ITEM: ATOMS id type x y z vx vy vz 
80 1 3.47139 -7.62306 -5.20126 -0.00940603 -0.00591391 -0.0539428 
100 2 2.76092 -8.01639 -6.00028 0.0560995 0.0609215 -0.0416679 
87 1 4.73854 -7.46796 -5.2285 0.00987797 -0.0195764 -0.013272 
85 1 5.5018 -6.57157 -5.37627 -0.00548411 -0.0123633 0.00757245 
99 2 5.99433 -5.70285 -5.3211 0.0746883 -0.00489568 -0.0278012 
105 2 4.8646 9.3758 -10.5857 0.00488281 -0.0219152 -0.0661006 
535 2 5.36296 5.51562 10.059 -0.00388567 -0.00631137 -0.0564867 
523 1 4.87441 5.87518 11.087 0.0104786 0.0424672 -0.0274551 
524 1 3.01714 6.85376 9.48051 0.00439156 0.00628181 -0.0054252 
525 1 -1.08234 2.18459 10.8051 -0.0165679 -0.00490914 0.03151 
515 1 -0.290972 2.87745 10.0071 -0.0160632 0.0245072 0.0109122 
526 1 -0.52283 3.2385 8.57593 0.0241604 -0.0248867 0.0196118 
538 2 -1.33845 3.00252 8.19215 0.0174924 0.0368138 -0.0365531 
536 2 3.61942 7.41492 8.92254 0.0251267 -0.00177144 0.0646271 
510 1 1.5302 4.57848 10.2652 -0.00113268 0.00575894 0.0021943 
509 1 0.907387 3.21651 10.8057 0.00542935 0.0129502 -0.0107263 
527 1 1.96785 6.25945 8.58422 0.0049876 0.00613783 0.000851972 
516 1 1.28148 4.87403 8.83524 -0.00208275 0.00404743 0.000659141 
514 1 3.58625 6.02576 10.5166 0.0198721 -0.0275864 -0.0089672 
508 1 2.65789 4.97638 10.9291 -0.0219034 -0.00908699 0.00693842 
528 1 0.219166 4.35475 7.84605 0.0066875 -0.00189488 0.0119872 
521 1 -0.390326 2.68888 14.1756 0.0112259 0.00636021 0.0040209 
533 2 -1.0469 2.10745 14.8934 -0.0193239 0.00948684 -0.102535 
530 2 1.21794 3.56073 15.6931 -0.00437573 -0.00382109 -0.0474283 
529 2 2.1433 5.00513 15.9668 -0.0225935 0.0256582 -0.0156145 
518 1 0.575343 3.38089 14.7853 0.00268012 -0.00391719 0.0293467 
517 1 2.38619 4.83606 14.9346 -0.00729217 0.00606561 0.00624871 
519 1 3.66075 5.31408 14.3518 0.039369 -0.00667107 0.0161009 
531 2 4.47622 5.53374 14.9895 -0.00665931 0.0747695 -0.0726862 
512 1 3.90671 5.32907 12.9469 0.0293849 0.0110856 -0.00871674 
511 1 1.50318 4.1156 14.0686 0.0137408 0.0162036 0.00146509 
505 1 2.04468 3.67464 12.8569 -0.0247293 -0.0122031 -0.0118222 
506 1 2.79274 4.64634 12.3557 -0.00328343 0.0116478 0.00910524 
520 1 5.4206 5.55813 12.3976 0.02483 0.00581917 0.00979541 
532 2 5.8337 4.75818 12.493 0.00173075 0.0568469 -0.0314342 
382 1 -7.84223 -10.832 28.61 -0.034511 0.0284328 0.00232497 
381 1 -5.4631 -10.7586 28.3145 0.00654997 0.0140852 0.0206922 
393 2 -5.74668 -9.72215 28.6487 -0.0210341 -0.0511437 -0.00933103 
390 2 -7.43337 -9.79011 28.7006 0.116054 0.051303 -0.017173 
371 1 -6.71597 -11.3641 28.1916 0.0205744 -0.0106191 -0.0105706 
396 2 -9.97707 -11.5402 29.4647 0.0455444 -0.0158396 0.00263651 
384 1 -8.9571 -11.6617 28.9372 0.0126141 -0.0036857 -0.000743416 
495 2 -3.2792 -11.1717 27.8183 0.0717567 -0.0878444 -0.0717903 
378 1 -4.36291 -11.535 28.0529 -0.0151379 -0.0143851 0.00297497 
172 2 -4.0957 5.8081 25.9888 -0.0165773 -0.0486575 -0.0324756 
160 1 -3.22394 5.31095 26.45 0.00484453 -0.0239585 -0.0167213 
175 2 -2.43128 3.93139 24.9344 0.0236542 -0.0102576 -0.0829567 
164 1 -0.825904 2.52935 27.163 -0.0170685 0.00186804 0.0116975 
148 1 -0.979972 4.49159 28.4506 -0.00163721 0.00826163 0.0156191 
154 1 -1.39223 3.82544 27.0694 0.0132717 -0.0180554 0.0246142 
150 1 0.175735 4.03385 29.3939 0.00454441 0.0169656 0.0149331 
163 1 -2.39234 4.40667 25.99 0.0147414 -0.00187894 0.0104804 
146 1 -1.71691 5.68807 28.6395 0.00201765 -0.000419294 -0.00593097 
152 1 -3.03719 5.62648 27.9686 0.00853887 0.0135165 -0.0149107 
167 1 0.307046 2.04455 28.0435 -0.00591563 0.0276768 0.000626525 
156 1 0.398106 2.62517 29.3695 0.00934418 -0.0240266 -0.0192965 
180 2 0.879803 0.893516 30.5977 0.0731667 -0.0567558 0.0411651 
169 2 -4.76731 4.49139 28.2926 0.0325806 0.0672947 -0.185976 
159 1 -4.24861 5.26193 28.7682 0.0382375 0.0193632 -0.0113924 
171 2 -4.90369 6.05075 30.5781 -0.00829433 -0.102997 -0.0303092 
157 1 -4.1798 6.33614 29.8007 0.0317056 0.00186121 0.00444585 
145 1 -1.45267 6.42975 29.8856 0.00173506 -0.0103069 0.00814609 
149 1 0.464971 4.86875 30.6809 0.0215319 -0.000329785 0.0308366 
174 2 1.18268 4.7959 34.2191 0.0535741 0.06017 0.0272896 
168 1 1.12946 2.06142 30.6516 0.0100636 0.00739934 0.00277114 
166 1 1.53101 2.95461 31.7905 -0.00904758 0.00735795 -0.00148331 
178 2 2.3011 2.56526 32.5103 -0.0100597 0.0182754 -0.018678 
155 1 1.0573 4.31874 31.8444 -0.0145506 -0.0322255 -0.0103876 
165 1 0.910625 5.07922 33.1542 -0.000621699 -0.0208638 -0.00407305 
170 2 -2.91876 9.02208 31.3067 -0.0432262 0.0865569 0.0827193 
147 1 -0.525598 5.80326 30.9246 -0.0373819 -0.0129997 -0.00914089 
173 2 -1.57948 8.37912 33.2871 -0.000600875 0.0252921 0.0210146 
158 1 -2.48836 8.14885 30.8918 -0.0327507 -0.0192203 0.00412785 
153 1 -0.71412 6.73783 32.0218 0.0184771 -0.0237292 0.0107615 
161 1 -1.60928 7.83085 32.0453 0.0115209 0.00217984 -0.00649836 
151 1 -2.69568 6.96658 30.1466 0.0047845 0.00761942 -0.00126864 
162 1 0.227523 6.35943 33.2727 0.0100844 -0.00245998 -0.0108202 
513 1 -0.327401 2.66033 12.7833 -0.0219181 0.00471034 0.0218788 
534 2 -2.09779 1.0293 12.5 0.0299938 -0.0620929 0.060427 
507 1 1.05829 3.02675 12.041 -0.0175427 0.0131226 0.00725819 
522 1 -1.25233 1.78872 12.0112 -0.00547836 -0.0172102 0.00290511 
140 2 11.0964 16.7565 -3.77228 0.00246904 -0.0399412 0.000428125 
143 2 11.7847 18.7958 -3.72437 -0.0127977 -0.0567484 -0.0284408 
128 1 11.9304 17.5934 -3.76907 -0.019835 -0.0169893 0.0132587 
464 2 -1.09498 27.84 18.0787 0.0182269 0.0291501 -0.028576 
64 2 0.247561 27.2818 17.4202 -0.0369175 0.0399878 0.0790392 
387 2 -4.43377 29.648 29.822 -0.0605679 0.0162477 -0.0804917 
450 1 7.30998 29.7932 25.3279 0.0113325 -0.013248 0.00617163 
461 2 10.3691 29.2814 25.9566 -0.0133809 -0.0663217 0.000576373 
449 1 9.72571 28.4432 26.1291 0.0154794 0.0212391 0.0163474 
458 2 11.0924 27.0811 27.3383 -0.000764595 0.00598943 -0.10267 
462 2 6.3211 28.9555 24.7193 -0.100771 -0.027541 0.0399265 
446 1 10.2521 27.9021 27.3352 -0.0182001 -0.0159047 -0.00163449 
441 1 8.48335 29.2821 26.2162 0.0140423 -0.00848757 -0.00789716 
439 1 10.3961 28.3939 28.7576 0.0127257 -0.0270721 -0.0209785 
435 1 8.13082 29.3723 27.7752 0.00490502 -0.0206946 0.0126271 
433 1 9.27074 29.2903 28.7997 0.0116878 0.0290793 -0.00904337 
376 1 -6.8221 30.5076 30.7293 -0.0112721 -0.00422579 0.0180579 
365 1 -6.76858 35.0587 28.1496 0.00814888 0.018082 0.0243769 
366 1 -7.61783 34.2458 28.7988 -0.00275343 0.0141456 0.00151014 
364 1 -7.41487 33.0929 29.583 -0.0273531 -0.00119395 -0.0167236 
362 1 -6.3529 32.5493 29.0647 -0.0265731 -0.0086534 -0.0170919 
372 1 -8.78929 35.0675 29.234 -0.0206153 -0.0189636 -0.00518191 
374 1 -3.12601 32.9264 27.5777 0.026162 0.00157753 -0.0101544 
385 2 -5.04281 30.6609 27.4489 -0.0455151 0.0623745 -0.0639365 
361 1 -5.44517 33.0784 28.0239 0.00609044 -0.00580616 0.019924 
363 1 -5.65562 34.2717 27.9313 -0.00398388 0.0194777 -0.00561694 
368 1 -5.8496 31.3895 29.8806 0.00972692 0.0191917 0.0305701 
375 1 -4.83915 30.4217 29.3389 0.00182217 -0.00203552 0.0105457 
373 1 -4.19542 30.8804 28.0296 0.015898 -0.00740134 0.00542438 
367 1 -4.34443 32.3459 27.7163 -0.017736 -0.00699774 -0.0204407 
388 2 -3.26746 30.3097 27.7307 0.0981006 -0.0572212 -0.0382001 
386 2 -2.37837 32.6323 26.8159 -0.121366 -0.128486 -0.0118462 
377 1 -3.15771 34.3132 27.1673 0.029719 -0.0253726 -0.00943263 
369 1 -4.39012 35.0683 27.7061 -0.00861777 -0.00898711 0.00151597 
438 1 6.83868 29.9371 30.0584 -0.00330973 0.00948507 -0.0112535 
453 1 6.09323 30.0184 26.0579 -0.0155623 0.00240577 -0.013188 
465 2 5.66998 31.1752 26.1725 0.0510606 -0.0726592 0.0208859 
466 2 3.78121 30.2274 27.8767 0.0193391 -0.0332555 0.0279162 
443 1 5.87815 30.0534 27.7349 -0.00206404 -0.0213658 -0.00601875 
454 1 4.6449 30.2865 28.6285 0.01101 -0.00822514 0.00451114 
456 1 4.60793 31.0263 29.9005 0.0031939 0.00844209 -0.00743939 
389 2 -2.08785 34.6209 27.3853 0.0611484 0.0192299 -0.0897728 
437 1 6.84632 29.9072 28.6064 0.00945016 0.0143098 0.00917013 
391 2 -8.96443 30.3993 31.1188 -0.0166802 -0.0189364 0.0127573 
434 1 9.25285 30.3353 29.9692 0.0217798 0.00327667 0.00583712 
379 1 -8.18656 31.0995 30.9353 -0.0224458 0.0195762 0.0177393 
370 1 -8.5568 32.2299 29.9831 0.00973431 -0.0140155 -0.00511517 
392 2 -10.9428 32.1329 29.8216 0.0269397 0.0602263 0.0968955 
383 1 -9.93917 34.2277 29.7876 -0.00876925 -0.0224296 -0.0149712 
380 1 -10.0004 32.6609 29.9321 -0.000422034 0.0407712 -0.00509355 
395 2 -10.9379 34.5914 30.0889 -0.0564507 -0.0623703 0.0490772 
455 1 6.138 31.2426 31.9282 -0.00148345 -0.00456669 0.00299119 
468 2 3.58251 31.671 30.0794 0.0603112 -0.0471543 0.0342808 
444 1 5.6325 30.5844 30.6333 0.0180485 -0.0180135 0.0054863 
442 1 8.21445 31.1419 32.1083 0.0190148 0.0153255 -0.0153809 
463 2 9.10851 32.8725 33.1352 0.032087 0.0833125 0.0705476 
460 2 11.7832 31.9037 32.0086 0.0463236 0.0297703 0.0138998 
447 1 11.6229 29.914 30.3948 -0.0274445 -0.0175078 -0.0120952 
440 1 10.4591 30.6608 30.7936 0.00395478 0.0121525 -0.00834825 
451 1 9.36867 31.878 32.4269 -0.0436096 0.0295573 0.00460303 
448 1 10.7085 31.5493 31.9982 0.0118365 -0.015333 -0.00107211 
467 2 6.96844 32.0267 33.8362 0.0378763 -0.02199 -0.0841648 
452 1 7.01582 31.1364 33.0229 -0.00948614 -0.0231846 -0.00111464 
436 1 8.11458 30.4196 30.729 0.0205275 0.028921 0.00843801 
445 1 11.5858 29.12 29.2253 -0.00770574 -0.0186526 0.0090861 
250 2 29.7049 4.57561 -1.42915 0.0339792 -0.00684571 -0.0124021 
496 2 34.8414 3.10837 0.574917 0.00248374 0.112413 -0.0401137 
282 2 34.0114 5.18869 13.5857 -0.00565757 0.00414703 0.0396012 
135 2 34.8701 4.88639 13.0928 -0.0359517 -0.00265444 -0.116583 
71 2 17.1987 10.8585 34.5568 0.00411385 0.0615917 -0.0288348 
504 2 17.3244 11.0536 33.8009 0.0645506 -0.0869847 -0.0244617 
142 2 16.267 15.0452 -6.06844 0.014663 0.0690661 -0.00644387 
132 1 14.8992 16.4736 -4.82647 -0.0039045 -0.00192109 0.0153957 
130 1 16.0018 16.0627 -5.56611 -0.0150678 -0.0162429 -0.00492189 
119 1 17.0589 17.0239 -5.52189 0.011125 -0.0140727 0.0162191 
133 2 17.0543 23.3863 -1.42844 -0.0199375 0.0543002 0.130261 
121 1 18.9781 22.312 -2.1911 -0.00814172 -0.0234264 0.00529355 
141 2 18.5585 15.7818 -6.22148 -0.0183552 0.00530171 -0.0575197 
129 1 18.3832 16.6048 -5.72255 -0.0130329 -0.00509628 0.0121481 
138 2 19.8077 17.5324 -6.74874 0.0266773 -0.0166306 -0.0246352 
125 1 20.109 19.8442 -4.68681 0.0154882 -0.0134039 0.0341004 
117 1 18.9319 19.0963 -5.25175 7.63226e-05 0.00107163 -0.0117638 
137 2 21.2071 19.2945 -4.59923 0.0153036 0.0296198 0.094963 
126 1 19.3153 17.7536 -5.68063 0.0104533 0.000467177 0.0204799 
114 1 15.5199 18.3876 -4.10442 0.013928 -0.00332122 0.0262914 
113 1 16.7247 18.3345 -4.95978 -0.00132674 0.00458441 -0.00301141 
131 1 13.2773 17.5452 -4.09918 0.00815713 0.0117444 0.0024502 
112 1 15.1911 19.4741 -3.30728 0.00825163 0.00356948 0.00742821 
120 1 14.4959 17.4765 -4.3748 -0.00470604 0.0222589 0.0287561 
109 1 17.7008 20.2858 -3.91655 -0.0217419 -0.0139285 0.0133954 
123 1 17.6568 22.3705 -1.35624 -0.0037889 -0.00910114 -0.0179671 
118 1 14.0557 19.8907 -2.44363 -0.0111432 -0.0267262 0.0167167 
139 2 13.4775 19.2865 -1.92786 0.072 0.0696332 0.0649806 
110 1 16.4518 20.0442 -3.08942 -0.0109533 -0.0403113 0.0124366 
116 1 16.4571 21.2937 -2.11391 0.00256105 0.00388299 0.00343286 
136 2 15.6336 22.8281 -1.02915 0.0489423 -0.063532 0.0706791 
177 2 13.4077 21.4668 -0.81612 0.0236974 0.0815887 0.0754236 
127 1 14.0409 21.0266 -1.61622 -0.0102029 0.00374363 0.00780913 
124 1 15.2745 21.9238 -1.82079 -0.00232142 0.000528606 0.0123984 
111 1 17.5432 19.4187 -5.042 -0.00609853 0.010132 -0.00496941 
122 1 20.0917 20.8196 -3.76213 0.00026299 0.0056618 0.0342166 
134 2 21.3326 21.1115 -3.58972 0.0665877 -0.0380813 -0.0276404 
115 1 18.7739 21.1779 -3.32062 0.0190959 -0.000694264 -0.0131139 
459 2 12.4867 30.1905 30.8164 0.0278805 0.020078 -0.0210087 
457 2 12.6608 29.1553 28.6014 -0.162311 -0.0709984 -0.0105152 
358 2 35.976 27.4876 19.6457 0.00758484 -0.025708 -0.0205713 
216 2 35.9027 24.6606 18.8282 0.0452351 -0.0524578 -0.0496499 
537 2 53.4645 -3.25261 -2.10008 0.00533064 0.062202 -0.0270708 
540 2 53.8311 -3.54549 -1.49669 0.0454032 -0.0354395 0.0916193 
539 2 37.7397 8.2576 2.39336 0.0233258 0.0560232 0.0479481 
179 2 38.1598 8.7636 2.98121 0.0679826 0.0392984 0.0558998 
283 2 59.5363 -7.26228 5.68121 -0.0852034 -0.0639888 -0.0539924 
74 1 59.1214 -3.80238 30.8262 0.0183263 0.00179249 0.0134923 
176 2 56.3898 -10.859 15.5187 -0.0235972 0.0162901 -0.151795 
560 1 46.2285 -3.01769 20.8494 0.0006577 -0.0265084 0.00975529 
550 1 46.2192 -2.40213 22.2074 -0.0181236 -0.0269288 -0.0156652 
572 2 45.7079 -4.01278 20.7467 0.0130267 -0.0396666 -0.0105669 
559 1 45.1519 -1.83972 23.0583 0.00815726 0.00601945 -0.00117338 
571 2 44.269 -2.29013 22.5492 0.031459 0.0411575 0.0375716 
563 1 47.2705 -2.52846 19.7836 -0.00592835 -0.0166435 -0.0128824 
575 2 47.5377 -2.77937 18.7313 -0.0553184 0.00113284 -0.0216492 
562 1 50.5985 -3.13598 20.011 -0.0207586 0.0114359 0.00459869 
546 1 48.6101 -1.43672 21.4669 0.00133761 0.0157282 -0.0125266 
564 1 51.3074 -3.84177 19.0146 -0.0297856 -0.0207621 0.00555659 
421 2 52.0197 -3.54005 18.3462 -0.059562 0.0336909 -0.0568174 
552 1 48.3356 -2.12974 20.3062 0.0201273 0.00448191 -0.00827697 
576 2 51.0528 -5.06834 18.8911 -0.0543179 0.00676561 -0.0280996 
551 1 51.0177 -2.31521 21.1085 0.0147119 0.00353521 -0.0223554 
544 1 47.5184 -1.60546 22.4668 0.0224965 0.0194223 0.00330796 
545 1 50.0273 -1.53626 21.5992 -0.0349133 0.0040044 -0.000356797 
561 1 52.4315 -1.71937 21.2911 0.014709 0.0196601 0.0104495 
573 2 53.3299 -1.84207 20.8261 -0.0683119 -0.00479058 -0.0658551 
542 1 47.9705 -0.905515 23.5595 -0.0216086 -0.00801446 0.00469624 
543 1 50.5794 -1.15747 23.0109 -0.0310057 -0.000490709 -0.0152886 
558 1 52.5968 -0.341282 21.859 -0.0153936 0.0395791 0.00814666 
541 1 49.4049 -0.948152 23.8186 -0.026609 -0.00297628 0.0254258 
278 2 58.4049 -3.888 22.859 0.0333419 -0.00692241 0.0053826 
281 2 59.0611 -1.98834 23.9453 0.0753528 -0.0455996 0.095267 
104 2 59.5582 0.198979 29.1596 0.0788956 0.00617017 0.00127382 
76 1 58.786 -2.93759 29.9868 0.00915126 -0.00339696 0.00881876 
547 1 49.6037 -0.396754 25.2516 0.012527 -0.0177096 -0.000920217 
569 2 49.2844 -1.24199 26.0534 0.0537274 -0.0359544 0.0859776 
102 2 54.6639 -7.01122 29.6328 -0.0684787 -0.00173935 -0.00473047 
81 1 56.6837 -6.42396 29.7885 -0.0169585 -0.00359612 0.0123373 
90 1 55.1851 -6.1908 29.4629 0.0537905 -0.00857227 0.0133821 
556 1 45.5157 -0.765643 23.9984 0.00389622 0.000586945 0.0228202 
568 2 44.7276 -0.273791 24.6267 0.0173568 -0.00645513 0.0160092 
557 1 51.4416 0.777881 23.9229 -0.0406333 -0.0148558 -0.0092833 
549 1 51.5656 0.0004257 22.8463 -0.00996693 0.0167218 0.00243704 
570 2 53.6518 0.0646969 21.8239 -0.0531433 0.118736 -0.0452002 
93 1 54.6756 -5.11165 29.0418 -0.00862221 -0.0121476 0.0167018 
83 1 55.263 -3.97001 28.6506 -0.0333028 -0.000116352 0.00316404 
75 1 57.4591 -5.06409 29.9935 -0.000512876 -0.00303125 -0.00936367 
77 1 56.7302 -3.96419 29.2355 0.0255754 -0.0154255 0.0150391 
78 1 57.4499 -2.86849 29.4104 0.00328124 0.00871705 -0.0129212 
94 1 54.4642 -2.63835 28.5775 -0.0014187 0.0232748 0.0153428 
96 1 55.257 -1.86395 29.5111 -0.00349481 -0.0158741 0.0111103 
84 1 56.6113 -1.80474 28.7566 -0.00225383 0.000927181 0.00768108 
106 2 54.7233 -1.02296 30.022 0.0788493 -0.015331 -0.024554 
95 1 57.6371 -0.715028 28.713 0.017411 -0.00400612 -0.0136705 
82 1 59.6894 -1.6983 30.0543 0.00819154 0.0262043 0.027958 
567 2 46.8411 2.69342 25.977 0.0347499 -0.0317614 0.0167812 
553 1 47.6541 2.25049 25.2178 -0.0011408 -0.0271926 -0.0309562 
548 1 47.2721 1.01458 24.6692 -0.00926892 0.0468535 -0.0178343 
565 2 48.6584 2.63716 24.8833 0.157746 0.0447179 0.0268074 
555 1 46.8723 -0.236686 24.0764 0.0225123 -0.0165459 -0.0049309 
554 1 50.4159 0.603529 24.8876 0.0003482 -0.00365308 -0.0186002 
566 2 50.3295 1.54913 25.5317 -0.038503 0.0211202 0.0285909 
107 2 57.2644 0.368596 28.266 0.0457691 -0.0444689 0.0860042 
89 1 57.2822 -7.58325 29.9935 -0.00197072 0.010658 0.0188166 
101 2 56.5227 -8.54764 30.1584 -0.0104103 0.0173347 -0.0977298 
86 1 58.4802 -7.63897 30.9321 -0.00233409 0.00407448 -0.0141461 
98 2 58.2093 -8.74397 31.4364 -0.0214329 0.0724409 -0.0151445 
79 1 59.2507 -6.45039 31.2026 -0.00367953 0.0120362 -0.0194646 
277 2 59.6187 -6.39453 20.9295 -0.0264036 -0.0586806 -0.064476 
17 1 47.0665 -4.89684 27.8454 0.0149847 -0.0164784 -0.000880062 
29 2 45.5678 -4.85473 29.2008 0.0226749 -0.0296167 -0.0880011 
14 1 46.3917 -4.27339 28.6043 -0.00658487 -0.0089483 -0.0550442 
33 2 46.5751 -2.98798 28.9186 0.0694432 0.0544916 0.108064 
73 1 58.6475 -5.25564 30.872 0.0109966 -0.0346418 0.000684861 
92 1 59.0571 -0.77443 29.1457 -0.00200392 0.0203023 -0.0108456 
266 1 59.4077 -4.04421 23.1572 0.00653488 0.0204437 0.00799093 
269 1 59.7789 -2.88658 24.0049 0.00200116 0.0109502 0.00760713 
355 2 59.9173 -4.14976 31.6881 -0.0252294 -0.0319252 0.0785747 
485 1 41.4182 17.9552 2.83015 -0.0083597 0.00138256 0.00173865 
494 2 39.4848 16.8554 3.7144 -0.0940611 -0.0141652 -0.0328062 
482 1 40.0729 17.8438 3.61997 -0.0343963 -0.0013067 -0.0278566 
498 2 42.4709 17.2273 2.59306 0.00816851 0.0295877 -0.00434341 
470 1 41.8907 22.5936 4.48227 -0.000312443 -0.0130256 0.00776599 
476 1 40.6348 23.2715 4.86123 0.0062836 -0.0184577 0.0278574 
483 1 39.2062 22.8286 4.52146 -0.00642672 0.0125099 -0.00658086 
493 2 38.3407 23.3679 4.97632 0.0261313 -0.015931 0.00134938 
469 1 40.1869 20.2296 3.98642 -0.0157865 0.014714 0.0188419 
481 1 39.3782 21.4565 4.36361 0.0371618 0.00620172 0.00170937 
471 1 41.5723 20.1925 3.55231 -0.0164887 0.00531456 0.00196559 
108 2 38.3618 18.4772 4.24686 -0.00241523 -0.0230212 -0.0951858 
475 1 39.3803 18.9282 4.07308 0.0292594 0.000529125 -0.0227344 
479 1 42.3493 21.5117 3.50856 -0.0130772 -0.00376776 -0.0188668 
477 1 42.2368 19.0802 3.01876 0.00649948 -0.0137146 -0.00926399 
501 2 45.1402 17.3318 2.8245 0.0246426 0.0489351 -0.0112666 
473 1 43.9298 22.9404 3.21874 0.00564801 -0.011522 0.014073 
480 1 45.2213 22.9493 3.36791 0.0224344 -0.000301568 -0.0012372 
490 1 46.407 23.2513 3.6698 0.00264758 -0.00555921 0.00213799 
474 1 43.3495 21.9687 2.54644 -0.00289653 0.0357502 -0.000636883 
500 2 45.6303 19.0171 2.41193 -0.040707 -0.0314412 -0.0536797 
491 1 44.7654 18.3816 2.69792 -0.010027 -0.0196843 -0.0109637 
488 1 43.6852 19.1476 3.27823 0.0140961 0.0186681 -0.00424319 
497 2 44.1568 21.3507 1.85563 -0.05744 0.0668559 -0.0232915 
472 1 42.8361 23.616 4.3457 0.0149813 0.0323863 -0.0369449 
502 2 49.2036 26.6111 3.69054 -0.0526396 -0.0323265 0.0816767 
484 1 40.4309 24.559 5.53563 -0.000631233 -0.0163401 0.00507271 
499 2 39.6731 25.1561 6.11761 -0.0131534 -0.0263123 0.00998831 
487 1 41.5962 25.4093 5.48531 -0.00862472 -0.0070759 -0.0196363 
492 1 47.3759 24.0206 3.46406 0.0112252 0.00531972 -0.00617131 
478 1 42.7518 25.0967 4.87498 -0.000883029 -0.0118962 0.000631529 
503 2 43.3002 25.9659 4.33056 0.0401291 -0.0552752 0.11704 
486 1 49.5139 25.8359 3.33976 -0.00668079 -0.00780239 0.0112562 
489 1 48.3039 24.9065 3.29278 0.0166057 0.0395009 0.00221003 
350 2 39.2405 24.4295 12.6432 -0.020542 0.0372369 -0.0897288 
353 2 37.2595 24.0444 14.4307 0.0317705 0.0332245 0.0433623 
341 1 38.2594 24.3138 14.6135 -5.87686e-05 -0.00306884 0.0203399 
144 2 58.6779 16.9303 16.1697 -0.167228 0.0318245 -0.069874 
338 1 39.2555 24.7498 13.6662 0.00467356 0.00902123 -0.0100236 
337 1 41.7275 25.5276 13.6701 0.0264195 0.0033751 0.0109543 
331 1 40.4736 25.2778 14.188 -0.0125958 0.00436584 0.00542905 
333 1 38.4231 24.8957 15.878 -0.0149084 0.0243332 -0.0318793 
342 1 37.2259 24.4415 16.9282 0.00965877 -0.0151089 0.00129383 
335 1 37.3197 26.3853 18.0853 0.0132367 -0.00862668 0.0169832 
327 1 39.0955 25.9521 16.0441 -0.00763449 0.00347799 0.00896427 
329 1 38.5639 26.6082 17.2118 0.0251063 0.0225798 0.0142039 
325 1 40.1689 26.1036 15.2576 -0.0179405 -0.00580893 -0.000797642 
326 1 41.1204 27.101 15.6855 0.0199198 -0.00860302 -0.0050398 
328 1 40.7606 27.5137 16.9961 0.0114126 -0.0117464 0.0125753 
334 1 41.5473 28.6406 17.1951 -0.0177345 -0.00268658 0.00122767 
330 1 39.295 27.8457 17.191 0.00221596 -0.00521262 -0.024705 
345 1 36.7349 25.0381 18.1214 -0.0160091 0.027428 -0.0123245 
394 2 57.9867 17.2024 16.2879 0.0701093 -0.0199152 -0.120663 
351 2 42.9942 27.0559 12.6663 -0.00276883 0.0703423 -0.0163935 
339 1 42.1414 26.8517 13.4732 0.00258817 -0.00305912 -0.00384433 
332 1 41.9629 27.6208 14.6125 -0.0141997 0.00507005 -0.0314366 
340 1 42.9476 28.7211 14.7676 0.0072468 -0.000923349 0.00530584 
343 1 42.6244 29.1046 16.1111 -0.0445686 0.0257458 -0.0122386 
574 2 50.5568 15.1651 15.1293 0.0427311 -0.199688 -0.0990362 
346 1 36.9483 27.4066 19.0211 -0.00325971 -0.0130446 0.0211216 
336 1 38.7026 28.7512 18.1414 -0.0195163 -0.000779435 0.00407394 
347 1 39.6051 29.9302 18.1804 -0.00503012 -0.00332122 -0.0174913 
344 1 40.9395 29.8991 17.7478 0.0057687 0.00415827 -0.000457045 
348 1 37.5592 28.7083 19.0506 0.0131853 -0.0111985 -0.0113077 
360 2 37.3435 29.4814 19.9472 0.0670852 -0.0334998 0.0592564 
352 2 50.7738 15.6227 14.1696 -0.071068 -0.0822134 0.0323961 
359 2 38.9917 30.8649 18.6882 0.0245786 -0.00855281 -0.013236 
356 2 41.2562 30.9153 17.5901 0.0754367 0.00296458 -0.0591983 
31 2 42.722 25.6826 26.8847 -0.0714348 0.0178509 0.0191488 
27 2 40.1431 25.5844 27.0837 -0.132865 0.0599879 -0.0229967 
15 1 39.8515 26.5137 26.5456 -0.00109209 -0.00376255 0.00754379 
13 1 38.607 27.0267 26.9042 0.00310473 -0.0032057 -0.0252183 
19 1 42.1791 27.1983 25.6691 -0.0025947 0.00780488 -0.00769821 
10 1 42.5182 28.6505 25.5676 0.00726656 0.0415376 0.014572 
8 1 40.7809 27.4515 25.834 0.00198293 0.0246272 0.0239974 
4 1 41.4294 29.5827 25.6324 0.0036334 0.0367619 0.0359121 
1 1 38.8841 29.0317 25.6748 0.0254686 -0.0191493 0.0301122 
2 1 40.2939 28.7131 25.6497 0.015914 0.00322128 -0.00522501 
6 1 41.238 30.9834 25.2583 0.0150086 0.016765 0.0141317 
3 1 38.9861 30.4692 25.2759 -0.0155194 0.0262094 -0.0039321 
7 1 37.9035 28.2914 26.5246 -0.0304338 -0.00858506 -0.0264589 
26 2 36.8297 28.5932 26.7305 0.0213284 -0.0077492 -0.0315537 
25 2 37.9818 26.1122 27.1591 -0.00917343 0.00294191 0.0174951 
30 2 36.8161 31.2208 25.8478 -0.0134948 -0.012695 0.0525835 
16 1 42.9124 25.8715 25.907 0.0217489 -0.0203036 0.017102 
28 2 42.7505 25.1768 25.1049 0.0768715 -0.0682835 0.0185699 
23 1 43.9392 30.3772 24.6798 0.0183229 0.0137976 -0.0115352 
20 1 43.7383 28.9992 24.9039 0.0376278 0.013008 -0.0104291 
32 2 44.5055 28.1509 24.6812 -0.0209032 -0.0369474 -0.026139 
35 2 44.6331 30.8562 24.2049 0.0143511 -0.0192476 -0.0667554 
9 1 37.7501 31.0669 25.2977 0.00076226 0.0127116 0.013342 
5 1 40.1093 31.271 24.8482 -0.00129232 0.0444514 0.00752946 
21 1 39.1397 33.1709 24.6927 0.000182795 0.00338592 -0.00105689 
34 2 41.7497 34.2384 24.0533 0.0667787 -0.0660437 -0.0219415 
11 1 40.2474 32.638 24.6099 0.00187994 0.00987101 -0.0216723 
22 1 41.5025 33.3108 24.0152 -0.00131137 0.0152277 -0.00788863 
18 1 38.1494 32.4104 24.8932 0.000239794 -0.000926124 -0.00688253 
36 2 43.5683 32.9314 23.4893 0.0385264 -0.00985802 0.0455651 
12 1 42.5706 31.1318 24.6161 0.00460533 -0.00742057 -0.00378663 
24 1 42.6593 32.4924 23.8655 0.00453662 0.00482117 -0.00821475 
354 2 37.3047 23.4104 16.671 -0.0410051 -0.0707508 0.0868312 
349 2 41.9849 24.8686 12.7544 -0.0525263 -0.0258528 0.0386421 
231 1 68.1655 -5.47771 -8.50919 0.0104933 0.0219931 -0.0187454 
243 2 69.2721 -5.55141 -9.02289 0.035709 -0.0360421 -0.0437203 
244 2 68.7082 -7.4886 -9.32745 -0.0935486 0.0294675 -0.0816011 
224 1 68.268 -6.73862 -7.66142 -0.00580616 0.000600107 -0.00584756 
232 1 68.4883 -8.02371 -8.35948 -0.0362577 0.00520487 0.0206271 
217 1 66.5425 -5.73449 -6.48232 0.000158362 0.017039 0.00350008 
218 1 67.0309 -6.87577 -7.01444 -0.00420587 0.011556 0.00280493 
235 1 68.5435 -9.1277 -7.5881 0.000770913 -0.00664765 -0.00370091 
247 2 68.6879 -10.079 -8.49407 -0.0375695 0.0279028 0.0706046 
230 1 64.8428 -4.41774 -7.4118 -0.00188464 0.00142217 -0.00513313 
242 2 64.6168 -3.35863 -8.05362 -0.0690499 0.0872463 -0.0430665 
233 1 63.8177 -4.37776 -6.45021 0.00323266 -0.000471156 0.0255955 
245 2 62.9257 -3.92562 -6.50973 -0.0292527 0.0418716 -0.0439968 
229 1 66.9497 -4.89665 -8.63791 0.00399607 0.0096354 -0.0113028 
223 1 65.9617 -5.03315 -7.57504 -0.0101861 0.00497039 0.000656817 
241 2 67.1469 -3.93583 -9.18751 -0.00259584 0.0507792 0.0696962 
315 2 73.6892 7.29999 -11.7886 0.0630485 0.0305699 -0.045157 
237 1 63.1654 -6.5219 -4.08048 0.000126227 0.00474936 0.00429006 
238 1 64.5717 -7.5365 -1.94168 0.0135083 0.00767403 -0.0146516 
225 1 64.2724 -5.08279 -5.24338 -0.00168158 -0.0169793 -0.0186362 
227 1 64.4849 -6.67768 -3.17912 0.0207561 0.0187812 -0.0129691 
240 1 64.0146 -8.60982 -1.54474 0.0187198 -0.0092307 0.00463405 
249 2 62.5853 -7.31897 -3.53235 0.0188559 0.00628629 -0.0267801 
219 1 65.6576 -5.81384 -5.26389 -0.0266189 0.0103118 0.00956626 
221 1 65.7282 -6.46729 -4.11196 -0.00975104 0.0393116 -0.0143149 
252 2 63.1618 -9.13169 -2.01049 0.0105183 0.06996 0.0400854 
357 2 64.4539 -9.07435 -0.595842 0.0825931 0.0154764 -0.0652881 
248 2 67.3172 -7.59042 -2.72094 0.103767 -0.0131477 0.037528 
236 1 68.2514 -9.35335 -3.73236 -0.012191 0.00207483 -0.00351463 
220 1 67.3599 -7.77148 -5.87159 0.00314033 0.0218889 -0.00809273 
222 1 66.7318 -7.66166 -4.60618 0.0110544 -0.0177374 -0.0125541 
226 1 68.3284 -9.00442 -6.00414 -0.0050392 -0.015224 -0.00931155 
228 1 67.3112 -8.37418 -3.56318 -0.000624769 -0.00129367 0.0173408 
239 1 68.3278 -10.1338 -5.02691 -0.0171571 0.0129912 0.0147376 
415 1 68.4981 -8.82595 0.652308 -0.0333381 0.00797947 -0.0127326 
427 2 68.2882 -8.02744 1.31071 -0.103548 -0.0189265 0.0215385 
412 1 69.7899 -8.52683 -0.214517 0.0166843 -0.000836853 0.0122761 
251 2 68.925 -10.1034 -3.18471 -0.047754 0.013331 -0.029684 
246 2 62.0673 -5.99499 -5.96271 0.000927375 0.040078 -0.0395567 
234 1 63.0729 -6.01975 -5.37468 -0.0236302 0.0185882 -0.0313227 
425 2 70.9727 -4.38874 5.24794 -0.0362935 -0.054425 0.0347001 
418 1 65.8603 -11.7284 3.34749 -0.0316357 -0.0235542 -0.0113641 
419 1 66.1287 -11.4836 -0.588894 -0.00620489 0.0140531 -0.0140242 
406 1 67.7261 -9.76178 0.306486 -0.0102576 -0.0156216 -0.0156098 
424 2 70.3663 -8.1177 -1.14883 0.0125487 -0.0927909 0.0203455 
400 1 69.6018 -9.45631 2.7697 -0.00745812 -0.0125239 0.0271551 
402 1 68.5908 -9.03419 3.94814 -0.00895821 -0.0051527 0.00462949 
416 1 66.9218 -10.6976 -0.140723 0.0095126 0.0102994 -0.0113147 
408 1 67.5297 -9.9086 4.26675 0.00477999 -0.0037521 -0.0227562 
420 1 66.7983 -10.8527 3.69643 -0.0027235 -0.000829651 0.0158995 
426 2 68.424 -4.68327 5.96032 -0.0240795 -0.0182304 -0.137136 
401 1 68.4393 -7.63447 3.85156 0.00485887 -0.0111091 -0.0101473 
404 1 70.8198 -8.45954 0.786866 0.00704731 -0.00928355 -0.0134516 
398 1 70.5536 -8.5886 2.33934 0.015795 -0.0254171 0.00589312 
397 1 70.6218 -7.27111 3.08014 -0.0119599 -0.0185823 0.0132783 
399 1 69.8383 -6.88139 4.13316 0.0176286 -0.0213145 -0.0242139 
411 1 72.3269 -8.12801 0.846879 -0.0189208 0.013225 0.00118055 
407 1 67.1171 -6.85918 4.03766 0.00824919 -0.0151586 0.0112066 
403 1 71.7431 -6.57469 3.03423 -0.0276063 -0.0107497 -0.00628409 
413 1 71.283 -5.0293 4.56486 -0.0089349 0.0217584 -0.0141778 
405 1 70.1857 -6.00559 4.9071 0.00290226 0.011104 0.00320824 
409 1 72.5794 -7.04845 1.75884 0.0343336 -0.0212572 0.00418786 
422 2 72.6709 -4.46989 2.9603 -0.0204025 0.0129496 -0.00632083 
410 1 71.9699 -5.13249 3.59657 0.00909258 0.0117412 -0.00995911 
423 2 73.7543 -7.36426 1.85807 -0.00198919 -0.000945511 0.107941 
429 2 66.6967 -6.89365 3.1105 0.00844361 0.0949462 -0.0959214 
414 1 68.8674 -5.5431 5.36725 -0.0105839 0.00503639 -0.00242188 
417 1 67.6948 -6.01305 5.04667 0.0281689 0.0122464 -0.0120267 
431 2 65.194 -11.8459 -1.32716 -0.0584688 -0.0550622 -0.0416883 
432 2 65.0426 -11.2108 2.81827 -0.0349243 -0.00198655 0.0492991 
279 2 61.4326 -7.15786 20.2366 -0.0114931 0.00926084 0.0222189 
280 2 63.3389 -7.57639 20.1842 0.0684355 0.0106255 -0.0301225 
267 1 61.578 -6.49529 21.0506 0.000899799 0.016556 0.0140057 
268 1 63.8783 -7.65124 21.1631 0.00810903 -0.0433121 0.00605694 
260 1 62.77 -6.59708 21.5753 -0.00128702 -0.00250953 -0.0169276 
271 1 65.245 -7.6245 21.6256 -0.0244317 0.00832021 -0.0279282 
284 2 65.3775 -7.88162 22.6775 0.0435862 0.0110524 0.031618 
265 1 60.4219 -5.71443 21.4729 -0.0258249 -0.0213425 0.01047 
295 1 74.3948 8.82791 33.0645 0.0177717 0.00382354 0.0144899 
259 1 60.5618 -4.83085 22.7175 0.0107631 0.00146467 0.00896406 
261 1 61.2091 -2.5848 23.9162 -0.0253231 -0.00533641 0.00717254 
255 1 62.3531 -3.42449 23.5045 -0.0236557 -0.00344236 -0.00459588 
257 1 63.7201 -2.99212 23.1815 0.0166014 -0.0169646 -0.00877913 
253 1 61.9273 -4.78465 23.1301 -0.0112467 -0.0258656 0.0401645 
263 1 64.317 -1.72971 23.6568 0.000212984 0.00749958 -0.0122921 
254 1 63.1355 -5.56615 22.6039 -0.00777566 0.00911236 0.0221306 
270 1 61.7206 -1.35965 24.6743 0.0051705 -0.00717055 0.00520521 
258 1 64.7126 -3.89668 23.012 -0.0106152 -0.00707962 0.00943191 
256 1 64.3901 -5.34934 22.9715 0.00930468 0.0112108 -0.0180738 
262 1 65.2615 -6.10088 21.8184 0.00840741 0.0128393 -0.00751553 
285 2 61.3289 -0.453853 25.127 0.0524066 -0.0188495 -0.0637299 
274 1 65.6508 -0.986905 23.4613 -0.0120964 0.00050827 -0.00691152 
264 1 65.9008 -3.27799 22.7097 -0.0179412 0.0120792 0.0489107 
275 1 66.6125 -3.72232 21.5957 -0.0100828 -0.0151873 -0.00734279 
272 1 66.0186 -5.04665 21.2723 -0.0154337 0.00730136 0.0128748 
287 2 67.2109 -3.36588 20.4598 0.0542027 -0.065347 -0.0559948 
276 1 66.6064 -1.95633 23.3559 0.0272719 -0.0179613 -0.0138856 
288 2 67.8052 -1.97721 23.5529 0.0321063 0.00290163 0.0170562 
286 2 65.7253 0.155387 23.5725 0.0368786 -0.0246964 0.0497284 
273 1 63.1359 -1.332 24.3 -0.0151179 4.30025e-05 0.00897199 