ITEM: TIMESTEP
380000
ITEM: NUMBER OF ATOMS
576
ITEM: BOX BOUNDS pp pp pp
-1.2000000000000000e+01 8.4000000000000000e+01
-1.2000000000000000e+01 3.6000000000000000e+01
-1.2000000000000000e+01 3.6000000000000000e+01
ITEM: ATOMS id type x y z vx vy vz 
327 1 3.8926 5.22056 4.97743 0.0211846 0.0111626 -0.00692958 
325 1 4.15376 5.55184 3.60766 -0.0124313 -0.00951467 -0.0189049 
326 1 5.28646 5.22336 3.09826 -0.00606145 0.00904114 -0.0142296 
333 1 2.49434 5.54485 5.52672 -0.0255045 0.00582979 -0.00980731 
329 1 4.75693 4.36952 5.79461 -0.0155859 0.000542755 -0.0204364 
344 1 7.88883 3.22985 3.72486 -0.0175624 -0.00464145 -0.00759717 
356 2 8.81972 2.84165 3.28674 0.0430862 -0.0734109 -0.0411674 
347 1 8.10005 3.17485 5.10845 0.0225807 -0.0237671 0.0359449 
330 1 6.03023 4.02869 5.0769 0.00207058 0.0187074 -0.00614552 
334 1 7.61429 4.60233 3.39684 -0.017191 -0.00728392 -0.00692331 
343 1 8.11519 5.81446 2.68257 0.00685334 0.0203261 -0.044607 
328 1 6.13955 4.64316 3.8823 -0.0201282 0.00318985 -0.0038614 
355 2 9.23725 6.17613 2.36331 -0.0262724 -0.0414431 -0.06688 
336 1 6.90899 3.25849 5.96691 -0.0132994 -0.00609115 -0.00167946 
338 1 2.01164 7.03933 3.40658 -0.0179523 0.00402314 0.00599781 
350 2 1.20392 7.54197 2.78239 -0.0565816 0.0612617 -0.000350084 
331 1 2.99338 6.06629 2.93655 -0.0217433 -0.000317451 -0.00419231 
337 1 3.049 6.09491 1.45889 0.0066071 -0.0270397 -0.0207664 
349 2 2.12011 5.83836 0.582629 -0.03249 0.0228536 0.0226811 
341 1 1.69328 6.41087 4.65194 0.00758909 -0.00233391 -0.00522794 
353 2 0.809495 5.85746 4.87364 -0.0534781 0.0179429 -0.084516 
339 1 4.35618 5.94641 0.85162 -0.000267671 -0.0200308 0.0033024 
351 2 4.60223 6.39318 0.00966283 0.0692298 -0.00805656 -0.0589762 
332 1 5.5651 6.00764 1.86317 0.000903074 -0.0236059 -0.00648142 
340 1 7.04422 5.88468 1.60915 -0.00645612 0.00551756 0.0047527 
352 2 7.18761 5.89528 0.558273 0.081358 -0.000482956 0.05384 
216 2 3.77116 4.87282 8.76441 0.0720272 -0.0368787 0.00349286 
345 1 3.37677 4.69891 7.81078 -0.00743828 -0.00546341 0.00445406 
335 1 4.48244 4.24695 7.01846 -0.0129155 -0.0404552 0.026346 
342 1 2.40957 4.98901 6.82919 -0.0034271 -0.0172183 0.0345973 
359 2 9.09088 3.66391 5.10761 0.0591476 0.00930199 0.0504172 
358 2 5.2017 3.02364 8.67764 0.0439169 0.021372 -0.139556 
360 2 7.10571 2.68539 8.34164 -0.0183176 -0.0672371 0.00290098 
348 1 6.52438 2.71156 7.27774 -0.0128168 -0.0133119 0.00828066 
346 1 5.40584 3.3503 7.69486 0.00850411 -0.0105947 0.0223447 
354 2 1.45805 5.46983 7.50673 0.0086074 0.0161322 -0.0801531 
452 1 -9.66476 -10.2534 17.6578 0.026747 -0.0189655 0.0261017 
464 2 -9.85951 -7.9491 17.5162 0.010142 0.0400944 -0.0476029 
442 1 -9.26953 -8.93281 17.5966 -8.38276e-05 0.00731891 -0.00646511 
463 2 -6.15816 -10.0549 16.0407 0.0138297 0.11063 -0.0586208 
540 2 -6.93373 3.31467 20.5932 -0.128806 -0.028001 -0.0160669 
440 1 -6.62096 -7.03046 16.8072 0.0114062 0.0182098 -0.0130572 
451 1 -6.57573 -9.2521 15.3397 -0.0118588 -0.0110061 0.0038104 
448 1 -6.7476 -8.01233 15.7422 0.00487991 -0.0144834 0.00234202 
460 2 -6.09582 -9.17313 14.1711 -0.114008 -7.92422e-05 -0.102824 
447 1 -6.24902 -5.67907 16.7263 -0.00346162 0.0126589 -0.0158457 
459 2 -5.47754 -5.52382 15.8893 0.0117519 -0.0580097 0.0266589 
394 2 3.11898 6.09131 11.6908 0.0249842 0.0164923 -0.0779389 
537 2 -7.56567 3.48335 20.4777 -0.00729578 0.021575 -0.103754 
454 1 -6.92604 -11.2872 21.4324 0.00921926 -3.35239e-06 0.0159442 
456 1 -7.03506 -11.8463 20.1052 0.023598 0.0078984 -0.0187541 
444 1 -7.68886 -10.883 19.2569 -0.00618713 -0.00619043 -0.0100691 
437 1 -6.20987 -9.19873 19.9217 -0.0181958 -0.0139855 -0.0103761 
455 1 -9.00991 -11.2487 18.7356 0.0153358 0.0111927 -0.00914512 
443 1 -6.35834 -9.92823 21.1496 -0.0187922 -0.0101373 0.0203598 
438 1 -7.34989 -9.44656 19.1786 -0.0117592 0.00338877 0.00596562 
435 1 -6.16354 -7.73145 20.0607 0.0088356 -0.0170288 -0.0342576 
436 1 -8.08379 -8.49085 18.3574 0.0146448 -0.0230782 -0.0163232 
434 1 -7.14586 -7.299 18.0976 -0.0198134 -0.030509 -0.0128825 
433 1 -6.63195 -6.5431 19.3136 -0.00410474 0.0015018 0.0057053 
441 1 -5.82298 -7.15212 21.2791 0.00568383 -0.0300369 0.00244822 
453 1 -6.70854 -9.0651 22.2997 -0.00475597 -0.00153547 0.00618573 
465 2 -7.20909 -9.8371 22.9689 -0.0485726 0.0741173 0.0484688 
450 1 -6.50612 -7.75173 22.5717 -0.00659448 -0.00487586 -0.0127981 
462 2 -6.74927 -7.34513 23.6722 -0.0170612 -0.0269143 0.0117121 
439 1 -5.96852 -5.26473 19.1456 0.001163 0.0154254 -0.00817319 
446 1 -5.11269 -4.9739 20.2461 -0.00725076 0.00376856 -0.0167204 
445 1 -5.45629 -5.01933 17.861 0.0301257 -0.00834641 -0.0130117 
457 2 -4.42663 -4.94391 17.7064 -0.0619417 -0.000261574 -0.0217203 
458 2 -4.5491 -4.0438 20.2737 0.0453828 -0.0051677 0.0892395 
449 1 -5.00345 -6.02365 21.2694 -0.0075997 0.00486597 -0.00933782 
461 2 -4.3572 -5.37104 22.1953 0.0766931 -0.0425859 -0.0264167 
123 1 -7.28482 23.283 -8.14381 0.0210928 -0.0104072 -0.00938582 
124 1 -8.19946 20.9088 -7.32658 0.00403267 -0.00729545 -0.0147467 
127 1 -8.16329 19.7866 -6.54295 -0.00276615 0.00162281 -0.00669302 
136 2 -9.31107 21.1643 -7.41384 -0.067444 0.0571915 0.0436068 
116 1 -7.18413 21.8594 -7.67485 -0.00386308 0.00945876 0.0280376 
110 1 -5.97097 21.6808 -7.0089 -0.0185154 -0.0036924 0.00528159 
112 1 -5.768 20.297 -6.38941 0.0481744 -0.0439807 -0.00755587 
121 1 -6.46907 24.3229 -8.45952 0.0100642 0.0301374 0.0148734 
139 2 -9.06635 19.25 -6.43391 -0.0170884 0.0428126 -0.0454499 
118 1 -6.85347 19.3862 -5.89592 -0.0148816 -0.00992123 0.0118724 
113 1 -3.26412 20.6892 -7.06479 -0.0184989 0.0053004 -0.0144991 
109 1 -4.97008 22.6718 -7.0734 0.0139307 0.0145 0.0043606 
115 1 -5.10391 23.9562 -7.79952 0.0138311 -0.0102067 0.00157655 
111 1 -3.75255 22.0124 -7.4366 -0.00939975 -0.0155286 -0.00108535 
122 1 -4.21224 24.5166 -8.68565 0.00807811 0.00165658 0.0106516 
117 1 -2.5778 22.5086 -8.3708 0.0024897 0.00341026 0.0149085 
126 1 -1.23965 21.9635 -8.23837 0.0117359 0.00283225 -0.00648647 
138 2 -0.0388646 22.4227 -8.51282 -0.0143981 -0.0102448 -0.0446269 
125 1 -2.86448 23.9887 -8.76873 -0.00315483 0.0204902 0.013222 
137 2 -2.39662 24.334 -9.58333 0.0198072 0.0336546 0.0638745 
129 1 -1.06521 20.582 -8.16991 -0.00346591 0.00516308 -0.0125304 
141 2 -0.608571 20.1513 -9.15341 0.0601279 -0.00232788 -0.0326486 
119 1 -1.97138 20.1307 -7.1803 -0.0041303 0.000641231 -0.0114683 
133 2 -6.68898 25.3768 -8.75244 0.0113193 -0.00393209 -0.0486976 
409 1 -10.8762 26.0009 -6.64647 0.0017288 -0.00862753 -0.00109292 
422 2 -8.39335 24.572 -5.98898 0.0486805 0.0350629 -0.0861501 
429 2 -12.0958 22.6923 -0.00213681 -0.0587728 -0.00225714 0.0763591 
403 1 -10.5135 24.9264 -5.51648 -0.00572665 -0.0165098 -0.00937345 
134 2 -5.04851 25.3645 -9.0251 0.0972945 -0.0464902 -0.0142101 
140 2 -7.0556 16.9936 -5.71164 -0.0403772 0.0640788 0.084702 
143 2 -5.32402 18.958 -4.41322 -0.0218359 -0.0300598 0.0615818 
131 1 -5.18236 17.9995 -4.82905 -0.00248931 -0.00416221 0.00814021 
405 1 -10.0677 23.0363 -3.37791 -0.00458557 -0.0122044 -0.0134763 
128 1 -6.5225 17.9983 -5.23213 0.00496638 0.0130823 -0.00347388 
407 1 -11.4647 22.5273 -1.03283 -0.0125022 -0.0178065 0.0232266 
417 1 -10.2133 22.5901 -0.950564 0.00375493 -0.00945453 0.0110844 
426 2 -8.32312 22.8955 -1.78541 0.00366547 -0.0334883 -0.0784317 
413 1 -9.05366 23.4017 -4.49583 -0.000753662 0.024719 -0.00219241 
414 1 -9.37079 22.6765 -2.1148 0.00636017 -0.00697725 0.00243122 
425 2 -8.04733 22.8693 -4.19802 0.0337155 -0.040692 -0.00170642 
114 1 -4.50579 19.7629 -6.49636 0.0170414 -0.0292629 0.0048323 
120 1 -4.1771 18.6427 -5.70988 0.00354344 0.0152331 -0.00268956 
132 1 -2.66622 17.981 -5.96839 -0.0291064 -0.0213886 -0.00135684 
144 2 -2.47124 16.9462 -5.49461 0.0636123 0.0836774 -0.0915493 
130 1 -1.54908 18.6591 -6.39754 0.0205258 -0.00123766 -0.0172488 
142 2 -0.474888 18.2952 -6.21093 0.0296938 0.0324981 -0.0535583 
410 1 -9.15814 24.3813 -5.3345 0.00186964 0.0151268 0.00614874 
397 1 -11.4484 24.729 -4.47179 8.52317e-05 0.00148096 -0.0112644 
399 1 -11.3058 23.7549 -3.19237 -0.00906489 -0.00500197 -0.00336437 
468 2 -7.78053 35.3963 20.2451 0.0273376 -0.00901525 0.0383085 
105 2 -8.55225 23.3246 32.4119 0.0243533 -0.00328349 0.0279206 
467 2 -9.25272 35.7246 18.616 -0.1114 -0.056012 0.0197814 
466 2 -6.89203 36.2418 22.4934 0.079474 0.135494 -0.00549511 
179 2 -8.14034 12.6117 35.6618 0.106705 -0.0519083 -0.032272 
282 2 29.3108 10.7451 -7.26625 -0.012545 0.0356477 0.0522763 
135 2 29.4639 11.5282 -7.72515 -0.0428928 -0.0224761 -0.00302877 
15 1 35.8263 11.0603 3.58034 0.0118635 0.00977412 -0.006174 
2 1 35.3331 9.9423 5.72291 -0.016361 -0.000567697 0.0415574 
7 1 33.6215 11.733 4.84267 -0.0096176 -0.017521 0.000624987 
9 1 32.2669 11.5053 7.17131 0.013681 0.00974123 0.0296136 
17 1 31.3843 11.9961 5.85858 -0.00700367 0.0264269 0.0116736 
12 1 35.8438 8.21694 8.82818 0.0161595 -0.0134255 -0.0158478 
13 1 34.8059 11.8815 3.74337 -0.00106797 0.0146338 -0.00371204 
1 1 34.1374 10.9489 5.90226 -0.0150808 -0.010871 0.00578244 
4 1 35.6957 8.85869 6.54198 -0.0387726 -0.0316987 0.0255652 
6 1 35.0797 8.83622 7.6962 -0.00320569 0.0221148 0.0194614 
21 1 32.3316 10.1046 9.62729 0.0134979 -0.0101776 0.0081276 
3 1 33.3321 10.3978 7.1237 -0.0118996 -0.0110012 -0.0122881 
30 2 30.9205 11.0897 8.45967 0.0621934 0.0427881 0.0829818 
33 2 31.641 9.85892 10.445 0.00677666 -0.0939585 -0.0470786 
22 1 34.572 9.3971 10.5766 0.00193025 -0.00623079 0.0154489 
34 2 34.4058 9.09096 11.5555 0.0226953 0.00648798 0.136097 
18 1 31.7526 10.512 8.37474 -0.0104366 -0.0107265 -0.000819544 
5 1 34.1591 9.87863 8.25634 -0.0301553 0.00424032 -0.000328682 
11 1 33.691 9.63196 9.45437 -0.0176144 0.0227505 0.0152516 
24 1 35.8731 9.1405 10.0579 -0.00996642 0.000244774 0.00696346 
494 2 21.475 -6.56308 14.6213 -0.0242783 -0.0245209 0.0255959 
485 1 20.9715 -6.21686 15.2831 0.0125652 -0.00190512 -0.00504728 
482 1 19.7925 -6.55244 15.9193 0.0029077 0.0310732 0.0213696 
108 2 19.604 -7.57482 15.9275 -0.0534388 -0.0122409 -0.024708 
475 1 18.9284 -5.72476 16.8572 0.00254962 -0.0121346 -0.0190746 
488 1 24.2171 -3.57885 14.5707 0.000930787 -0.0138601 0.00648353 
489 1 23.124 -4.64194 15.16 -0.00899141 0.0216457 -0.00312617 
498 2 23.2541 -5.50501 15.7975 -0.0198626 0.0693571 -0.0541726 
486 1 21.6915 -4.74525 15.0481 -0.00409389 0.00295612 -0.00380967 
497 2 20.4346 -2.64978 14.5633 0.060043 0.0160937 -0.119661 
477 1 20.9624 -3.36717 15.1807 0.0322721 0.0113951 -0.00896892 
501 2 19.6774 -2.25532 18.4299 -0.000260353 -0.0283941 0.0123711 
479 1 20.3802 -2.42352 17.6882 0.00422002 -0.0119703 -0.0307892 
471 1 20.2249 -3.29233 16.5314 -0.00822252 0.0188058 0.0226704 
474 1 22.7887 -2.51377 17.4996 0.00575064 0.0256105 -0.00608098 
469 1 19.8926 -4.63618 17.1024 0.018503 0.0131736 -0.0209775 
500 2 23.2673 -1.658 14.286 0.0205035 -0.0442636 -0.0699301 
491 1 23.5257 -2.35638 15.0568 -0.013888 0.00532375 0.00113646 
480 1 23.7351 -2.37021 16.7594 0.00649329 0.0111415 0.00833137 
490 1 26.2548 -2.02341 17.448 0.0110364 0.000753889 -0.0219864 
492 1 25.1708 -2.28152 17.2806 -0.0275897 0.0100869 0.0127614 
493 2 17.764 -4.36691 18.0679 -0.0682659 0.0583272 0.0420089 
481 1 17.9748 -5.30585 17.9385 -0.00809455 0.00410442 -0.0250381 
483 1 18.3288 -6.08714 19.1951 -0.0141888 0.00787436 -0.0296603 
496 2 19.4801 -6.2577 21.5499 0.0543817 -0.0675254 0.0161286 
499 2 22.264 -5.88298 21.4507 -0.00434431 0.011603 0.0285316 
473 1 21.6111 -2.67291 18.2818 -0.0262193 0.00493492 0.00451712 
476 1 19.5113 -5.15785 19.7299 -0.0093984 0.00172954 0.0315765 
470 1 20.3843 -4.78351 18.5421 0.0430396 0.0105861 -0.0147082 
472 1 21.219 -3.81802 19.1367 -0.00408964 -0.0252962 -0.0216852 
487 1 21.5341 -5.1501 21.3151 0.0223945 -0.00411965 -0.00214518 
478 1 21.9185 -3.86866 20.4658 -0.00251609 0.000603977 0.021095 
503 2 22.8194 -3.44536 20.5067 0.080233 0.00322088 0.134537 
484 1 19.9885 -5.33834 21.08 -0.00614298 -0.00823266 -0.0021529 
502 2 27.2077 -2.01847 17.9186 -0.0347071 0.00190312 0.0664721 
178 2 24.5255 12.1831 28.4027 0.0750473 0.0262361 -0.0428089 
421 2 17.3673 -4.31424 11.4734 -0.0680107 -0.0229499 -0.113342 
210 2 26.8791 25.5432 -10.1914 -0.0472271 0.0389837 -0.132061 
198 1 27.7588 26.2349 -10.2557 0.00682305 0.014617 -0.00166305 
201 1 28.3235 26.9453 -9.20984 0.0285645 -0.0169907 0.013194 
191 1 29.4976 27.6029 -9.75691 0.00217816 0.0101313 -0.000425371 
185 1 30.069 27.1407 -11.0372 -0.012903 0.000416286 -0.00409108 
202 1 30.0359 29.1382 -9.44959 0.0110433 0.00722277 0.0183069 
213 2 28.1216 26.5464 -8.29542 -0.00899547 0.0238399 0.0812571 
189 1 27.9648 26.4202 -11.5146 0.00860432 0.0191177 0.0179105 
214 2 29.5532 29.9395 -9.08507 -0.0379575 -0.0477952 -0.082936 
186 1 31.2281 27.2553 -11.6445 0.0243444 0.00997741 0.0116929 
204 1 31.061 29.0519 -10.2546 -0.0101571 0.00989392 -0.0186522 
192 1 32.0321 28.2512 -11.0013 0.0206949 -0.0289965 -0.00830021 
203 1 33.626 28.6055 -11.1382 0.00364745 0.00811333 0.0119287 
215 2 34.4654 28.7325 -10.453 -0.0185933 -0.0102948 0.0297887 
25 2 34.4603 12.3309 2.78982 0.106453 0.0256525 -0.0542615 
575 2 29.3706 24.5487 11.2626 0.0177548 -0.0113793 0.0505901 
562 1 29.1643 28.8531 11.3808 0.00376354 -0.0188125 -0.00976941 
14 1 32.3537 12.5359 4.87521 -0.00405099 0.00311254 0.0194457 
574 2 29.6008 29.5938 10.6225 -0.000660919 0.0654142 0.00659842 
572 2 27.8513 23.4107 11.1515 -0.0150542 0.0702532 -0.0383374 
564 1 29.3466 27.5566 11.5062 -0.00925722 -0.0087767 0.00570883 
563 1 28.475 25.0955 11.6194 0.0321849 0.034361 0.0199846 
576 2 30.199 27.1486 10.8918 0.0899843 -0.0240184 0.023225 
29 2 30.3778 12.3198 6.05123 0.0378634 -0.0586989 0.0313403 
573 2 27.4923 30.6056 10.7808 -0.0360964 0.0244384 -0.037624 
561 1 27.4855 30.6021 11.9521 -0.0169264 -0.0130331 0.0274639 
183 1 29.0861 26.75 -12.026 -0.00247434 -0.0219375 -0.0172801 
26 2 32.3231 13.57 4.30687 0.0550177 0.118593 0.0112109 
560 1 27.3875 24.2052 11.9131 -0.00931372 0.0169875 -9.56633e-05 
250 2 20.6714 17.3106 17.901 -0.122225 -0.0368444 0.0599531 
249 2 21.89 14.9959 17.4554 0.0141425 -0.0442554 0.0231472 
568 2 23.6277 23.4298 14.008 0.0154535 -0.00449391 -0.0611893 
571 2 24.4151 23.0592 12.5565 0.0564775 0.0616686 0.0205636 
209 2 25.7675 26.4374 36.078 -0.0536344 -0.118436 0.154127 
559 1 25.0441 24.0355 13.0952 0.0231806 -0.0314087 -0.00891198 
190 1 32.7378 27.7776 34.7459 0.00519998 0.00364238 -0.00323399 
555 1 23.1316 26.1502 14.9889 0.0081337 0.0137704 -0.0028347 
553 1 22.557 27.5893 14.8201 -0.00818776 0.00655868 -0.00523517 
565 2 21.8581 28.0386 15.5338 0.0694425 0.106378 -0.0293699 
567 2 22.4525 25.7023 15.6879 0.0272551 0.0767294 -0.0488731 
554 1 23.79 29.8953 14.7329 5.53103e-05 -0.000656959 0.0170996 
547 1 23.7846 28.5345 14.3398 0.00846112 -0.00772455 0.00211811 
550 1 26.1796 24.8224 12.4967 0.00499851 -0.00620485 -0.0183742 
556 1 24.194 24.2755 14.0621 0.00557989 0.00192738 -0.00219853 
548 1 24.0501 25.7964 13.8965 0.0109136 -0.0133407 0.0217668 
542 1 25.1367 26.7335 13.2785 -0.0241493 0.0223438 -0.00441834 
544 1 26.4076 26.0885 13.2847 -0.0074161 0.0155528 0.0218707 
541 1 25.0655 27.9838 13.9645 -0.0300984 -0.00175544 0.0123725 
543 1 26.0092 29.0186 13.2842 0.00767674 0.0118703 -0.00264521 
545 1 27.278 28.4638 12.9803 -0.00654408 -0.0227171 0.0434517 
546 1 27.443 27.0498 12.8357 -0.0171604 0.0197286 -0.0258238 
566 2 23.0715 30.5993 15.2207 -0.0606179 -0.00773986 -0.0131486 
569 2 25.1717 31.2723 15.1563 0.03435 -0.00655167 -0.130332 
557 1 25.0043 30.5539 14.3609 0.00188517 0.0123299 -0.00264244 
549 1 25.9106 30.2053 13.5294 0.0201741 0.0149057 0.00126741 
238 1 21.5441 17.8062 18.2318 -0.00636921 -0.0294009 -0.00760788 
237 1 22.6891 15.314 18.2565 -0.00256754 -0.00384093 0.0168557 
227 1 22.648 16.7341 18.6502 0.00438703 0.0113837 -0.0116699 
246 2 24.0772 13.6709 18.0945 -0.022541 0.0569539 -0.0322701 
222 1 23.5275 18.2898 20.3231 0.00441741 -0.0167392 -0.00294132 
221 1 23.4429 16.9608 19.8583 0.0142431 -0.00335556 -0.0113328 
233 1 26.1031 14.4105 20.0147 0.00642829 0.00873556 0.00665946 
225 1 24.8385 15.3127 19.243 0.00449527 -0.00396553 -0.0086815 
218 1 25.742 18.0986 21.5998 -0.0277248 -0.00193455 -0.0104338 
219 1 24.8785 16.5555 19.8572 -0.00711261 0.0486713 -0.013002 
217 1 25.9603 16.7171 20.8795 0.00583126 0.00217524 -0.00558239 
223 1 26.6625 15.93 21.8528 0.0252374 -0.0133909 0.00287186 
234 1 23.8751 14.6314 18.642 -0.0101528 0.013127 -0.0158343 
230 1 26.783 14.673 21.1609 -0.0221488 0.0345053 0.0322168 
229 1 28.1298 16.5314 22.2692 -0.0280423 0.0037915 0.00491796 
231 1 27.6679 17.7928 22.9566 -0.00319832 -0.00110939 -0.00539999 
242 2 27.8994 14.4556 21.3281 0.0816594 -0.00261254 -0.0162663 
241 2 29.0071 16.152 23.0558 -0.0712816 0.0130112 -0.0478298 
245 2 26.54 14.064 19.0215 -0.131073 0.0292928 -0.0544968 
240 1 21.4558 19.0459 18.7845 0.000854476 0.0194121 0.011734 
228 1 22.486 19.3207 19.9662 0.00977145 0.0226557 0.0156062 
252 2 20.8781 20.1183 18.5518 0.0564775 -0.0418567 -0.0161747 
251 2 21.8852 21.2818 19.7361 -0.101751 0.0327697 0.0459412 
239 1 22.5846 20.62 20.325 -0.00511068 0.0110171 -0.00320194 
236 1 23.2581 20.7654 21.6707 0.0119443 -0.0268418 -0.0199397 
248 2 22.8591 21.7697 22.0344 0.0600349 -0.00148143 0.0447067 
243 2 28.2244 17.963 23.8163 -0.0259608 0.0311403 0.050871 
224 1 26.7381 18.6779 22.473 0.00594932 0.00515751 -0.00682342 
220 1 24.4321 18.5965 21.5346 -0.000711546 0.0192006 -0.0151975 
232 1 26.6113 20.0456 23.1947 -0.0320443 -0.0039812 0.0303654 
226 1 24.3419 19.8812 22.2644 0.000868891 -0.0266589 -0.0105012 
235 1 25.4864 20.8324 22.6705 0.00985876 -0.0118575 -0.00157178 
247 2 24.8108 21.6332 22.9954 -0.0429958 0.115283 0.0442962 
244 2 27.3816 20.1803 24.0502 -0.0140756 -0.0114066 -0.0188339 
145 1 22.4588 17.1056 29.4562 -0.00472771 -0.00573849 -0.0139912 
147 1 22.9498 16.1056 28.6515 0.0112099 0.000138864 -0.0208232 
153 1 23.1217 16.309 27.265 0.00226598 -0.00429129 -0.0105683 
173 2 22.1107 17.1652 25.6626 -0.0482544 -0.0710288 -0.0244414 
161 1 22.5539 17.4582 26.6669 -0.00545648 -0.00142182 0.00885956 
149 1 23.0613 14.8421 29.3341 0.0229193 -0.0120065 0.0186535 
165 1 23.4969 13.8077 27.2508 -0.0366319 -0.00975803 0.000130464 
162 1 23.3478 14.9013 26.4425 0.0103703 -0.00608191 -0.0111854 
174 2 24.0564 12.8822 26.8764 -0.066463 -0.0390501 -0.0515997 
155 1 23.2312 13.5857 28.6724 -0.00309815 -0.00715183 -0.0027642 
166 1 23.9351 12.7315 29.3539 -0.00930203 -0.0109096 -0.0171082 
199 1 32.9107 27.5251 33.4926 -0.00933117 0.00201039 -0.0186128 
151 1 21.8843 18.4998 28.906 -0.0253212 -0.00368327 0.00349396 
158 1 22.0785 18.5436 27.5116 0.0268106 -0.0241621 -0.0131401 
170 2 21.3216 19.2829 27.1628 -0.0439188 0.0102073 -0.0593948 
171 2 21.238 20.3352 28.7963 -0.0792142 -0.0415901 0.0451482 
157 1 21.0723 19.4181 29.6244 0.00953952 0.00577019 0.0149203 
146 1 22.3004 17.2296 30.9096 -0.00550554 -0.0013562 -0.0060561 
175 2 23.2598 17.7029 34.4862 0.0382463 0.0288421 -0.0600079 
163 1 22.9 17.6367 33.5029 0.010252 -0.00821286 -0.00992291 
156 1 23.8644 13.6881 31.7658 0.00880871 -0.00632666 -0.0103936 
150 1 23.4876 14.9408 30.7778 0.00733972 -0.00573422 0.0103721 
167 1 24.4378 13.9212 33.2141 0.00245305 -0.000321048 0.00976441 
164 1 24.2196 15.2752 33.6938 -0.00817732 0.018468 0.0102619 
154 1 23.6418 16.3522 33.0401 -0.0127014 0.00255609 -0.0112333 
148 1 23.358 16.215 31.5204 0.00734781 0.0240339 0.0129116 
168 1 24.1591 12.9193 30.7251 0.000758074 0.0110633 -0.0119185 
176 2 24.2036 15.4994 34.7312 -0.0397436 -0.0182197 -0.032592 
211 2 33.8897 27.8882 33.1049 -0.0541003 -0.0628754 -0.114526 
172 2 21.6774 18.5432 34.2875 -0.0352496 0.0719075 -0.0262716 
160 1 21.9637 18.5849 33.0396 0.0299316 -0.00958538 0.0149406 
169 2 20.8004 20.3909 31.7349 -0.0220823 0.000827015 0.018007 
159 1 21.067 19.4981 31.0229 0.0173068 0.0102917 0.0325106 
152 1 21.929 18.5005 31.62 0.0236131 0.0154685 0.0115529 
208 2 32.528 27.4009 31.347 -0.0361475 0.0251089 -0.0771462 
205 2 27.8927 26.7698 31.6808 -0.0356601 0.042311 -0.117105 
195 1 29.8384 27.25 31.6663 0.0077442 0.019234 0.000543008 
193 1 28.6209 26.7843 32.2965 0.013211 0.00794784 0.0222213 
181 1 29.043 27.0766 34.632 0.00412525 -0.0123951 0.00590316 
194 1 26.9888 26.746 34.1751 0.0213234 0.00851206 -0.0103474 
197 1 26.8244 26.4091 35.565 -0.0208064 -0.00795051 -0.0141668 
206 2 26.4331 26.9892 33.2999 -0.0222831 0.0335541 -0.0520233 
187 1 28.206 27.4424 33.6514 0.0255878 0.00753698 0.00206175 
180 2 24.5946 11.9198 31.2328 -0.0115424 -0.0869923 0.00750517 
207 2 30.0515 28.2579 31.2173 0.0168406 -0.00450775 -0.0548387 
182 1 30.3775 27.2543 33.9418 -0.00770394 -0.00351833 0.0011632 
196 1 32.2952 27.1481 32.3611 0.00954063 0.0206699 0.0115497 
200 1 33.8979 28.3528 35.5694 0.00946555 -0.00138708 -0.00919469 
188 1 30.8902 26.7651 32.7697 0.00814475 -0.00832012 0.00360154 
184 1 31.327 27.7116 35.034 -0.00752837 0.0204081 0.00622523 
552 1 28.4523 26.4487 12.0184 -0.0178142 -0.0108319 -0.0271347 
551 1 28.0809 29.4944 12.4728 -0.00202199 -0.0132603 0.00333563 
558 1 26.0803 30.9109 12.3463 0.0144339 0.0237061 0.0370686 
570 2 26.156 31.8642 12.0726 -0.00461098 0.00534138 0.00237719 
212 2 34.9378 28.0212 35.258 0.0806069 0.160705 -0.138657 
96 1 57.2288 -1.0921 4.05101 -0.0281068 -0.00361417 0.00131233 
84 1 57.9374 0.0455955 3.43093 0.016785 -0.000159809 0.0141733 
106 2 56.1636 -1.39063 4.17684 0.0673231 0.0134929 0.0285752 
94 1 57.8074 -2.35225 3.67546 -0.0109002 -0.0051151 -0.0053426 
78 1 59.1877 -0.447442 2.93952 0.000883869 -0.0200424 -0.0124306 
83 1 58.9106 -3.00553 3.31577 -0.0208602 -0.00298986 0.0113951 
77 1 59.8195 -1.7603 3.05501 -0.0198353 -0.00461356 0.00581135 
95 1 57.1286 1.01283 2.88445 -0.00204783 -0.00146582 -0.00103422 
107 2 55.9985 1.33833 2.86301 0.0174114 -0.0568809 0.0223767 
104 2 57.274 3.14233 1.92534 0.0544399 -0.0108124 0.0201995 
92 1 57.6027 2.2086 2.38447 0.0407882 0.00854953 -0.00108962 
82 1 58.9394 2.2209 2.20602 0.0145329 0.00360858 -0.00512802 
76 1 59.7695 0.907936 2.62179 0.0315481 0.00933959 0.0262256 
28 2 36.7988 8.62246 3.00445 0.0510172 0.0547599 0.0555461 
19 1 37.4105 8.06446 5.28792 0.00622503 0.00211776 -0.0381001 
8 1 36.2125 10.0067 4.5965 0.0037854 -0.0169455 -0.0100329 
16 1 37.2294 8.90289 3.96101 -0.0049333 0.00255543 0.0144526 
10 1 36.7422 7.74555 6.40595 -0.0119279 0.0129696 0.0255788 
31 2 37.9486 9.5581 3.91521 -0.0474936 0.0305965 -0.0338737 
23 1 37.276 7.89476 8.7402 -0.0179524 0.00594936 -0.00296901 
306 1 58.1589 -1.28693 8.85271 0.0242993 0.0239923 -0.00598296 
299 1 56.8399 -0.154417 10.6405 -0.00844262 -0.0243032 0.01662 
35 2 38.0876 7.61469 9.57015 0.040534 -0.0490953 -0.0564488 
309 1 57.3752 -0.166631 9.36011 -0.00364467 -0.0159978 -0.00979876 
27 2 36.566 11.3901 2.55553 0.00773075 -0.00681583 0.0336734 
91 1 59.7748 3.35586 1.67621 0.0183601 -0.00218041 -0.0144679 
293 1 57.4954 -1.01891 11.5277 0.0238501 0.0179221 0.0383412 
291 1 58.7932 -1.52918 11.1237 -0.00567658 0.0335502 0.0123203 
93 1 59.231 -4.57206 2.87017 0.00486327 -0.000930046 0.00368452 
297 1 59.0129 -1.68529 9.64149 0.00207332 0.0171561 0.00893064 
318 2 57.7538 -1.17171 7.86053 -0.00738696 0.00951651 -0.0281434 
103 2 59.2877 3.88357 0.812825 0.00318377 -0.0798764 -0.0376179 
321 2 57.0294 0.212383 8.36689 0.0259752 0.00281662 -0.0296006 
310 1 55.6032 0.56056 11.0562 -0.0188633 0.00157997 0.0115844 
322 2 55.2157 1.57758 11.261 0.0171589 -0.0416884 0.104085 
32 2 38.9059 7.50134 7.66956 0.014928 -0.0648343 0.0678872 
36 2 36.475 10.0886 9.9455 0.0587912 -0.0615267 0.0475516 
20 1 37.7562 7.58256 7.5571 0.00346918 -0.0254587 0.0184662 
289 1 59.362 -2.63302 11.8173 0.00662582 0.0181488 -0.0270108 
320 2 54.0246 -4.00381 14.2523 0.0382023 -0.0131892 0.0654403 
323 2 53.6375 -1.76576 12.8469 0.0799991 -0.0402693 -0.00192217 
319 2 56.0786 -5.73599 15.3747 0.0258858 0.0924505 0.0709773 
316 2 59.0338 -5.48915 14.6304 0.116521 0.0109452 -0.0010718 
300 1 55.5973 -1.48992 12.7533 -0.0310688 -0.00888653 0.0170237 
292 1 57.1066 -3.19656 13.0206 -0.00404734 -0.0203145 -0.0035894 
296 1 58.627 -4.84361 13.1413 0.00909047 -0.0258673 -0.00779899 
304 1 57.9417 -5.30313 14.3257 -0.00696465 -0.00405894 -0.0169902 
307 1 56.5743 -5.27037 14.4933 -0.00497334 -0.00861276 0.0051794 
290 1 58.3706 -3.64301 12.3559 0.00938103 0.0138143 0.0167145 
298 1 56.1797 -3.95729 13.9182 0.0258995 0.00812651 0.000814607 
311 1 54.5815 -2.41145 13.0157 0.00232103 0.0201076 0.00334931 
308 1 54.8789 -3.67389 13.7115 0.00216393 -0.00936233 0.0184316 
376 1 49.4212 -7.17329 29.136 -0.011921 -0.0457614 -0.0245274 
368 1 50.34 -6.00607 29.0173 0.0145925 -0.0067631 0.00661798 
387 2 49.2151 -6.04018 27.34 -0.0232063 0.0121125 -0.0255004 
385 2 50.5699 -3.57609 26.3482 0.0170746 -0.0946561 -0.00699277 
375 1 50.1112 -5.59909 27.7196 0.00705104 0.0108331 -0.0169493 
373 1 50.548 -4.26954 27.2001 0.024234 -0.0149799 -0.0153135 
367 1 51.683 -3.71725 28.0061 0.0174722 -0.00584052 -0.0203831 
389 2 54.0321 -1.23488 28.0888 -0.00239084 0.0135276 -0.0804447 
377 1 53.6545 -2.20738 28.2449 0.0246162 -0.00789682 -0.0321362 
374 1 52.5913 -2.66421 27.5993 0.010996 0.000722783 0.00853262 
361 1 52.4675 -4.67589 28.8175 -0.0142155 0.0209653 -0.0159277 
386 2 52.3441 -1.75511 26.8261 -0.0304696 0.0561874 0.0274172 
363 1 53.925 -4.71414 29.2865 0.0137904 -0.00514111 -0.0259674 
381 1 56.459 -4.40032 29.9604 -0.0224079 0.00243769 -0.00313343 
388 2 48.2428 -6.79978 29.2561 -0.0326994 0.0110691 0.0226072 
391 2 50.1314 -9.20063 29.6915 -0.0279824 -0.00165266 0.0113433 
379 1 50.295 -8.12333 29.3953 0.00674275 0.0377326 -0.0108597 
370 1 51.7133 -8.04086 29.8163 -0.0218384 0.00521034 -0.00138121 
392 2 52.4915 -10.0466 28.9353 -0.00379103 0.0149042 0.0119557 
362 1 51.8751 -5.77816 29.1511 0.0236708 0.00894785 -0.018127 
380 1 52.6436 -9.14463 29.5748 0.0306542 0.0124262 -0.031095 
372 1 54.5915 -7.83716 30.1142 0.0202515 -0.00650608 -0.0195761 
395 2 54.1233 -9.93813 30.7303 0.0268414 -0.0300906 0.0035971 
383 1 53.9848 -9.18186 30.0599 0.00774935 0.02303 -0.0192246 
366 1 53.7141 -6.66514 30.2773 0.0129776 -0.0110691 0.00873664 
364 1 52.3802 -6.83463 30.0452 0.00558324 -0.00315448 5.93509e-05 
384 1 55.7827 -7.8305 30.8868 0.0122984 -0.00391755 -0.0145613 
382 1 56.5461 -6.61985 30.811 -0.0275074 0.0248951 -0.0112176 
396 2 56.0669 -8.70551 31.1534 0.0381305 0.012304 0.0303647 
390 2 57.6789 -6.92235 30.7888 -0.0559605 0.00578279 0.0310338 
365 1 54.3212 -5.36256 30.5703 0.0149083 0.010882 0.00642131 
369 1 54.493 -3.32241 28.9254 0.0456288 -0.0195495 0.0140301 
495 2 55.9043 -1.9989 29.7676 0.0264543 0.0746998 -0.048912 
393 2 57.5546 -4.4314 29.3749 -0.0262041 0.0249383 -0.0243885 
371 1 55.9048 -5.29997 30.9577 0.00643112 -0.000492997 -0.0185092 
378 1 55.7189 -3.10798 29.6307 0.00794344 0.00293624 -0.0299052 
294 1 57.0199 -1.84143 12.4879 0.0145848 -0.0195531 0.00459794 
324 2 53.6462 -0.00248579 12.2509 -0.00646176 0.0569536 -0.00199318 
312 1 54.9048 -0.2328 12.086 0.00425729 -0.0024157 -0.000287419 
63 2 39.5384 29.0627 -11.8901 0.0118639 0.025654 -0.102411 
61 2 39.3224 31.0671 -10.0734 -0.0411556 -0.0873871 -0.0130117 
62 2 39.0934 33.7408 -10.1032 -0.0231375 -0.0618651 0.0221365 
49 1 39.1384 31.2025 -11.246 -0.0403841 -0.0104286 0.0155831 
50 1 39.2307 33.681 -11.2828 -0.0313684 0.0109618 0.0269849 
43 1 38.4768 32.4515 -11.7201 0.00471725 -0.0208213 0.0129227 
65 2 41.0311 34.8543 -11.2628 0.0361335 -0.0286645 -0.0398457 
285 2 40.4175 26.9884 24.5887 0.0469092 0.0351753 -0.0285899 
273 1 40.0676 28.9673 25.4961 -0.020544 -0.0149749 -0.00816523 
270 1 40.3525 27.5842 25.4907 -0.0127924 -0.0018459 0.00171539 
281 2 40.5547 25.2418 26.7981 0.0613015 0.0743095 -0.0661919 
269 1 41.2687 25.8748 27.2371 0.0388043 0.000254864 0.0136028 
261 1 41.3474 27.217 26.803 -0.0201242 -0.0120847 -0.00895392 
255 1 42.3644 27.9936 27.2235 -0.0222261 0.000148904 0.00459372 
263 1 40.5144 29.8013 26.7666 -0.0291886 -0.00963136 0.013559 
278 2 42.2581 23.9977 27.6298 -0.00548174 0.0985485 0.0579708 
266 1 42.5018 25.1191 27.655 -0.021743 0.0126735 0.00187169 
259 1 43.4904 25.8723 28.1201 0.00270281 0.0169951 -0.0179231 
253 1 43.5819 27.4273 27.8723 0.00111336 -0.0194201 -0.0107448 
254 1 43.7334 28.3378 29.0077 0.0273747 -0.0178155 -0.00698201 
257 1 41.6807 29.4014 27.4129 0.00880529 -0.0197955 0.00453006 
277 2 44.1363 24.2109 28.8655 0.00873114 -0.0369762 -0.0455788 
265 1 44.2882 25.1788 29.2565 0.00179272 -0.00168288 -0.00132754 
60 1 38.1739 33.6138 30.2542 -0.0367648 0.0137306 -0.00541808 
48 1 38.1832 32.3862 30.8194 -0.00912848 -0.00548665 -0.0231484 
72 2 37.615 31.5533 30.4335 -0.00496417 0.0561513 -0.0119221 
58 1 38.6451 34.9181 30.8305 0.0193431 -0.0216784 0.0138497 
70 2 38.3105 35.9218 30.831 0.0745453 -0.0078978 0.0601433 
276 1 41.5941 32.2365 26.7318 -0.00210865 -0.00168483 0.0145986 
288 2 41.6408 33.1932 26.352 -0.0437787 -0.0697997 -0.0467689 
283 2 45.2579 30.1283 32.2627 0.059818 0.00722002 -0.0639139 
286 2 39.4563 31.9928 26.6847 0.0378831 0.0459166 -0.0219657 
274 1 40.2978 31.4052 26.8306 -0.0136828 -0.0131656 0.00794497 
264 1 42.6066 31.7616 27.5875 0.00702106 -0.0120781 0.0138168 
258 1 42.4303 30.4586 28.0385 0.0156377 -0.00137017 0.00520137 
275 1 43.8065 32.5808 28.3818 0.0193567 -0.0319825 0.0247042 
272 1 44.3955 31.7369 29.5515 -0.0185533 -0.0145658 0.0253982 
262 1 44.0734 30.4753 30.1054 -0.0137244 0.000555101 -0.00581721 
256 1 43.4446 29.9682 28.9155 -0.0116116 0.00554488 0.0182345 
284 2 45.1728 32.2075 30.2729 -0.0254488 -0.0381796 0.0876691 
287 2 44.201 33.7333 28.272 -0.0123373 -0.0561504 0.0334026 
64 2 38.7565 28.1825 34.0817 -0.0384137 -0.00341067 0.0777806 
67 2 37.2297 27.9872 32.2467 0.0190891 0.00409817 -0.0483801 
55 1 37.0556 29.0256 32.7409 -0.00749879 -0.000109651 0.00764463 
52 1 37.9933 29.0001 33.8905 0.00507595 0.00150023 0.0341478 
44 1 38.0112 30.1165 34.8945 -0.00264518 0.0105204 0.00530132 
260 1 44.4859 27.415 29.9202 -0.000468745 0.0184855 0.000195518 
268 1 44.9461 28.3914 31.0919 -0.00691714 0.000746293 -0.00468217 