ITEM: TIMESTEP
80000
ITEM: NUMBER OF ATOMS
576
ITEM: BOX BOUNDS pp pp pp
-1.2000000000000000e+01 8.4000000000000000e+01
-1.2000000000000000e+01 3.6000000000000000e+01
-1.2000000000000000e+01 3.6000000000000000e+01
ITEM: ATOMS id type x y z vx vy vz 
386 2 -2.67054 11.0016 -7.96623 -0.000873712 -0.0320814 -0.0277587 
295 1 11.3614 9.34408 7.80211 0.00356334 -0.0104018 -0.0118553 
367 1 -1.08463 11.2983 -9.2197 0.0520029 -0.00849553 -0.0342186 
361 1 0.317128 11.093 -9.92202 0.0247682 -0.0186162 0.0093859 
362 1 1.13073 11.6273 -11.0231 0.0121015 -0.0122031 -0.00323044 
377 1 -0.890834 9.99977 -7.16945 0.0120583 0.00674361 -0.0112674 
374 1 -1.65945 10.8787 -7.95527 0.0238346 -0.00375853 0.00458097 
315 2 9.05034 11.6685 5.95331 -0.000524556 -0.00865308 0.0638472 
303 1 10.014 11.1417 6.28012 -0.0316567 -0.0230705 0.0120072 
369 1 0.482951 9.82311 -7.58574 0.00613932 0.00184113 -0.0266822 
364 1 2.4262 11.4896 -11.417 0.039014 0.0204725 -0.0099453 
363 1 0.961236 10.4541 -8.87934 0.0201044 0.000733261 0.00286383 
365 1 2.31069 9.88752 -9.4158 0.00589997 -0.00263454 -0.0163076 
371 1 3.1611 8.96855 -8.79289 -0.0216142 0.00116863 -0.0199422 
366 1 3.0829 10.4714 -10.5529 -0.0119714 0.00180424 0.00450146 
314 2 10.9492 7.48286 7.50631 -0.0580569 0.0636146 0.00611577 
394 2 5.17071 7.91351 -8.41333 -0.0118833 0.0305984 0.0325421 
372 1 4.33966 9.89784 -10.9626 0.0116716 0.00608149 -0.0106375 
382 1 4.59118 8.82283 -9.00311 -0.00885835 -0.000344291 -0.00619682 
384 1 4.96734 8.81179 -10.3799 -0.00171508 0.00478157 -0.0152569 
396 2 5.61338 8.52099 -11.0099 -0.019754 -0.00819026 -0.0653607 
381 1 2.51341 8.37352 -7.51783 0.0111807 -0.0043411 0.0158035 
389 2 -1.0625 9.51415 -6.10762 0.00302579 0.0553591 -0.0863041 
393 2 2.8246 7.29786 -7.48598 -0.041131 -0.0252786 -0.0887282 
390 2 0.98042 8.19441 -6.0211 0.0036661 -0.000881415 -0.0218633 
378 1 1.24967 8.8528 -6.95377 -0.00159107 -0.00386635 -0.00283488 
313 2 9.55851 9.33104 6.36845 0.0677931 0.028322 -0.046524 
301 1 10.3837 9.94223 6.81777 -0.0128148 -0.022616 0.0149906 
302 1 11.6993 7.92154 8.29921 0.0116992 0.0174016 0.0312779 
380 1 4.55051 11.6284 35.2727 0.00965496 0.00929393 0.00686142 
383 1 5.18184 10.6606 35.918 -0.00154407 -0.00262227 0.00110318 
395 2 6.25635 10.299 35.5943 -0.0798229 -0.0286257 0.0785391 
304 1 11.1201 13.5664 6.40211 -0.0279126 -0.00433524 -0.0039037 
375 1 -0.813797 12.8961 -11.3859 0.0108727 0.0149094 -0.013663 
296 1 11.025 12.2161 6.80874 -0.0104365 -0.0142909 -0.0170985 
368 1 0.390063 12.2877 -11.8731 0.00213799 0.0133903 -0.00501357 
316 2 10.1052 14.2915 6.06794 -0.0196428 -0.0685639 -0.00308976 
63 2 3.2502 25.5725 -9.51083 0.00929838 -0.00502745 0.0626161 
61 2 3.32208 27.388 -10.617 -0.0120188 -0.0529732 -0.093543 
49 1 3.95125 27.2225 -9.86386 -0.0161426 0.015206 -0.00637367 
64 2 2.74922 24.7178 -6.56413 0.047065 0.058905 -0.0235561 
44 1 3.33275 26.7871 -7.42764 0.0168607 -0.00571258 -0.00550905 
52 1 2.96532 25.7093 -6.51714 0.000936437 0.0268285 0.00876868 
51 1 3.42251 26.3141 -8.783 0.0267734 0.00899429 0.0181576 
43 1 4.98155 28.3107 -9.36672 0.00397286 0.0241377 0.000366388 
38 1 4.20373 27.7113 -6.90383 0.00727384 -0.00728588 -0.0132758 
39 1 5.43688 29.7152 -7.64686 -0.00481683 0.00262367 -0.00766412 
41 1 5.75306 29.944 -6.4233 0.0150145 0.0154741 0.0124317 
37 1 4.63832 28.5938 -7.87045 0.00151907 0.0123575 0.0110766 
62 2 7.05247 28.3463 -10.8624 -0.0306746 -0.0801246 -0.0400134 
50 1 6.32161 28.4108 -10.0398 -0.00768572 0.0379411 -0.00371125 
65 2 7.97913 29.9727 -9.75726 -0.0329084 0.0941109 0.00408951 
53 1 6.9623 29.563 -9.57684 -0.0266103 0.0388916 -0.0124881 
45 1 6.61752 30.0782 -8.44787 0.0151847 0.0384087 0.0223537 
66 2 8.63774 31.1176 -8.43225 -0.00384223 0.0315781 -0.0660387 
54 1 7.63635 30.9512 -7.95062 0.00273772 0.0173039 -0.0244046 
69 2 8.53125 32.2455 -6.27195 -0.00997005 0.0164584 -0.0797817 
55 1 2.79768 26.4136 -5.29796 0.00969005 -0.0047858 -0.0026954 
40 1 4.4113 28.0545 -5.63898 0.00328974 -0.00209145 0.0234559 
67 2 1.64979 25.6142 -5.12166 -0.0474347 -0.0129608 -0.018723 
68 2 3.08167 27.3575 -2.63051 -0.0353013 -0.0945068 0.0642421 
56 1 3.46181 28.0018 -3.51676 -0.00877253 -0.021939 -0.0084443 
46 1 3.49465 27.5544 -4.77267 -0.000455705 0.0110332 -0.00096318 
59 1 3.97976 29.1054 -3.02234 0.0260091 0.00450457 -0.00558881 
48 1 4.78628 30.049 -4.12864 0.0417716 -0.0069801 -0.0197167 
42 1 5.02424 29.3753 -5.34577 0.00827209 0.00895689 -0.00987173 
57 1 7.51296 31.6228 -6.6733 0.0138123 0.0329474 -0.00249121 
71 2 3.62525 29.3079 -2.1597 -0.0205828 0.0126447 -0.0572887 
72 2 6.07762 30.547 -2.32403 0.00150628 -0.0503428 -0.00222634 
60 1 5.94757 30.5743 -3.4008 0.0136724 -0.0287842 0.00813378 
58 1 6.16534 31.596 -4.46798 0.00816354 0.00211317 -0.0105595 
47 1 6.36519 31.1445 -5.87857 -0.00894105 -0.00346325 0.0112735 
70 2 7.04351 32.0362 -3.98311 0.0118775 0.0804629 0.0562464 
373 1 -1.48498 12.2516 -10.1881 0.0314881 0.0204365 -0.00300341 
385 2 -2.61452 12.6193 -9.93848 0.00786578 -0.0303273 0.000212802 
243 2 -4.99165 21.8111 25.2231 0.0726774 0.0372886 0.00791925 
244 2 -3.58161 22.802 23.3434 0.0138505 -0.0595356 0.0710938 
232 1 -3.29847 23.7342 23.7227 0.00110747 -0.0312563 0.00540506 
235 1 -2.4079 24.5068 23.1275 0.00952393 0.00253411 0.00409922 
247 2 -2.0589 24.2603 22.1418 -0.0295461 0.0247913 0.0137737 
226 1 -2.3909 25.8009 23.9497 0.0132053 -0.0165944 -0.00666394 
236 1 -1.49127 26.7402 23.2534 0.0394664 -0.0501157 0.0169511 
248 2 -1.55505 26.9061 22.2783 0.0364572 0.0543857 0.0343265 
241 2 -5.13305 21.6867 27.506 -0.0276835 -0.0445134 -0.00592717 
229 1 -4.49005 22.5062 27.0003 0.00173419 0.0044726 -0.00885683 
223 1 -4.00442 23.62 27.797 0.00862668 -0.0253272 0.0202762 
242 2 -5.1033 24.308 29.8617 0.00496364 -0.0839299 0.0133049 
230 1 -4.13069 24.0401 29.2368 -0.00300036 0.0128744 0.00607586 
233 1 -2.6779 23.7352 29.647 -0.00313499 0.00180808 0.00445562 
225 1 -1.79047 24.6294 28.93 0.0167375 -0.0142022 -0.00984805 
246 2 -0.199804 23.2867 30.111 -0.00330705 0.0560689 0.0404994 
234 1 -0.441065 23.9174 29.2784 0.0285592 -0.00335226 0.0158343 
231 1 -4.79097 23.089 25.6933 -0.0128064 0.0244266 0.00877442 
224 1 -3.97373 24.0368 25.1238 -0.00313541 -0.0127788 0.00857771 
218 1 -3.54984 25.2252 25.8817 -0.00761365 0.00815606 0.0170809 
237 1 0.616263 24.4538 28.7424 0.0239219 0.0124124 0.0229135 
217 1 -3.26191 24.8998 27.1486 -0.0130118 -0.00307141 -0.00508889 
219 1 -2.17291 25.4357 27.7391 0.000351229 0.0218598 0.00327729 
220 1 -2.41516 25.8777 25.3204 0.0248339 0.00848497 0.0205795 
227 1 0.538714 25.4715 27.5813 0.0029338 0.0089301 -0.0182871 
228 1 0.0731007 26.9472 25.2665 -0.011578 0.0148477 0.00526054 
221 1 -0.862125 26.0202 27.3132 0.0208694 0.0234447 -0.0138361 
222 1 -1.11535 26.4237 26.0009 0.00557545 0.0107976 0.0250154 
239 1 -0.283734 27.1151 23.807 -0.0230387 -0.0108257 -0.0153641 
249 2 1.47915 23.9581 29.0497 0.0360933 0.0867478 -0.0203444 
250 2 2.55871 25.5691 27.3004 -0.0260946 -0.0775366 0.00531098 
238 1 1.53976 26.0626 26.8664 0.00208634 -0.00255455 0.000158227 
240 1 1.3598 27.1411 25.8787 0.0232225 -0.0159581 -0.00916129 
251 2 0.214668 27.6093 23.0149 0.0658758 0.0413927 -0.0230822 
252 2 2.26293 27.5866 25.4815 -0.102916 -0.0298079 -0.123383 
214 2 -11.5689 17.4217 32.3239 -0.15039 0.0670167 -0.0737947 
215 2 -9.66721 20.9398 30.5259 0.007406 -0.0377387 -0.0697506 
200 1 -10.176 22.8288 31.7072 -0.029867 0.00951495 -0.0157154 
391 2 3.14102 13.9611 34.5055 -0.0585013 -0.0373772 0.0924811 
203 1 -10.3688 21.5487 31.0455 -0.0156723 0.000631468 0.00822262 
192 1 -11.3274 20.6586 31.878 -0.01428 0.0200101 0.001408 
204 1 -11.1674 19.235 31.829 -0.0103638 0.00115156 0.0146963 
190 1 -11.116 23.1139 32.8507 0.00232472 -0.00170022 -0.0169235 
212 2 -9.38027 23.4821 31.4607 -0.0233007 0.0453846 -0.04116 
196 1 -11.8935 24.7434 34.4538 -0.0185086 -0.000491804 -0.00252644 
216 2 -10.2711 18.4927 31.6151 -0.0734179 -0.0842778 -0.0528888 
379 1 2.46781 13.3206 35.2685 0.00211982 0.0406212 0.0210037 
202 1 -11.9817 18.3496 32.5947 0.00122733 -0.00197846 0.0181308 
245 2 -2.33863 22.6917 30.2827 0.0646573 0.0293708 -0.00769565 
392 2 5.12633 12.1048 34.409 0.0268623 -0.0695754 0.0647308 
199 1 -10.9282 24.4376 33.616 -0.0137654 0.00599812 -0.0331652 
211 2 -10.2045 25.3151 33.428 -0.0377975 0.0191912 -0.0396764 
388 2 0.442366 14.1942 34.7487 -0.0569417 -0.0286791 -0.0526501 
376 1 1.00988 13.2193 35.0751 0.0206987 0.0104408 0.00504674 
370 1 3.16654 12.1249 35.6289 0.016757 0.0246453 0.00506473 
387 2 -0.781878 13.5812 35.8219 -0.0459244 0.0679103 0.0263944 
322 2 18.0377 11.3514 7.02997 -0.0198994 0.0274234 0.00485025 
318 2 15.743 6.32467 8.49475 -0.0425596 0.0717275 -0.0169847 
310 1 17.4886 10.7574 7.69023 -0.00562095 -0.00794335 -0.0252357 
293 1 14.99 10.4489 7.91951 0.00427108 0.029502 0.0011691 
309 1 16.2828 8.38501 8.16634 0.00130509 0.0112256 -0.00506069 
299 1 16.301 9.75584 7.5667 0.00177122 0.0142687 -0.0434964 
289 1 12.5555 10.2238 7.89988 -0.00575977 -0.0038377 0.00195221 
294 1 14.4902 11.8428 7.46423 0.00322676 0.00481352 -0.0319184 
291 1 13.9334 9.46633 7.73618 0.00240663 -0.00499073 0.0173563 
321 2 17.4493 8.42144 8.34808 0.0704232 0.0146982 0.0278887 
297 1 13.9982 8.13572 8.1871 -0.00802369 0.0226338 -0.0210395 
312 1 16.733 11.6216 8.63531 -0.0201061 0.0145455 -0.00706111 
305 1 12.8954 7.09408 8.24851 0.020513 -0.0152968 -0.0104191 
290 1 12.2958 11.6302 7.14421 0.00141819 0.0189924 -0.00398779 
306 1 15.2459 7.50084 8.56112 0.00453201 -0.0241218 -0.0305306 
317 2 12.7406 6.42935 9.03684 0.111878 0.010844 0.138233 
324 2 17.5382 11.8795 9.44152 0.10052 -0.0012896 0.0746915 
88 1 27.2947 15.5539 6.69156 -0.0102073 -0.0150988 -0.0115025 
91 1 28.2258 16.3547 6.04677 -0.0241404 -0.0164058 -0.00553034 
300 1 15.5868 12.5391 8.2719 -0.00416626 -0.000928953 0.00179636 
102 2 22.5238 17.7838 -0.0638859 -0.0173399 -0.00131183 -0.0340876 
93 1 24.4113 17.6841 -0.120825 0.0224713 -0.00971772 -0.0185718 
90 1 23.2838 16.8913 0.503928 0.0073596 0.0223639 -0.0092804 
81 1 23.4931 16.4231 1.90022 0.0160412 0.0038812 0.000404287 
105 2 25.0899 16.8409 -0.625311 0.0217554 0.0773185 0.0952944 
89 1 23.1485 14.9191 2.26509 -0.00682481 0.0104984 -0.0337523 
101 2 22.7311 14.7207 1.20851 0.0658519 0.0712756 -0.114018 
86 1 22.7351 14.5064 3.53646 -0.00264317 0.0257682 -0.0130056 
83 1 25.121 18.4362 0.961736 0.0168268 0.022767 0.00928122 
76 1 26.4364 17.224 4.36347 0.00209348 0.00400834 0.00654843 
78 1 26.3904 17.978 3.20307 0.0126506 -0.0187558 -0.023163 
77 1 25.1788 17.9492 2.46388 0.00012495 -0.00176315 0.0148694 
75 1 24.3864 16.9059 2.8809 0.0226723 0.0099263 -0.0113568 
74 1 25.6586 16.3435 4.90855 -0.0437237 0.0198725 -0.00328355 
79 1 23.6755 14.9735 4.5074 -0.0175033 0.0228707 -0.0252006 
73 1 24.637 15.9776 3.93447 0.00180494 0.00794407 -0.0169093 
106 2 25.9623 19.6421 -0.122751 0.0234982 0.038587 0.0361124 
94 1 26.3683 19.1239 0.766055 0.0219577 0.0062624 0.0155273 
96 1 27.2008 19.7413 1.7491 -0.0160782 0.00718963 0.0254564 
108 2 28.1191 20.3625 1.88915 -0.0980978 0.0274988 -0.0475459 
84 1 27.5195 18.8442 2.85219 0.0139993 -0.0162007 0.022455 
95 1 28.5451 19.3108 3.848 0.0222095 0.0164984 0.00447508 
107 2 29.3807 19.9797 3.65733 -0.0148102 0.0184732 0.024984 
92 1 28.9136 18.2197 4.53526 0.00965163 -0.0127421 -0.0238081 
82 1 27.9961 17.2395 4.87916 -0.0123278 0.00163285 -0.0170721 
104 2 29.9497 18.2497 5.30317 0.0555435 -0.0365221 -0.0874054 
287 2 35.4257 19.7853 -11.4412 0.0557668 -0.0190609 0.0601131 
298 1 13.2847 14.144 7.00833 -0.0186487 0.00712661 0.00629505 
103 2 29.3077 16.0948 6.19224 0.0217641 0.035616 -0.0830655 
466 2 35.085 21.1784 11.668 0.0191893 -0.0356392 0.000140174 
319 2 11.9754 15.5752 6.05066 -0.0655508 -0.0223117 0.0101167 
307 1 12.0519 14.585 6.29974 -0.0317877 -0.0125646 0.00100056 
308 1 14.5067 14.7111 7.54172 -0.0154694 0.0169544 -0.00620856 
320 2 14.8393 15.8429 7.34235 0.0754599 0.0397407 -0.00253622 
311 1 15.3203 13.9915 8.179 -0.00868453 0.000748704 -0.0292763 
292 1 13.3859 12.5211 7.38249 -0.00891328 -0.0134451 -0.0137128 
323 2 16.0456 15.0567 8.42114 -0.00288646 -0.00537921 -0.00332609 
98 2 22.0694 13.4702 3.54883 -0.00889001 0.0284834 -0.0747607 
100 2 27.3493 14.9911 7.46517 0.0265801 0.0881487 -0.0781092 
99 2 26.6749 13.3311 5.0916 0.0845039 0.0309181 -0.0489704 
97 2 23.7874 13.0022 5.48289 -0.0262732 -0.0244247 -0.0621592 
85 1 24.3192 13.9311 5.34873 -0.0179024 0.00251084 -0.0162839 
87 1 25.6711 13.9461 5.44208 0.000138478 -0.00415033 -0.0134407 
80 1 26.0558 15.2786 5.97818 -0.0159442 -0.00779515 -0.0186886 
435 1 35.9427 17.072 14.0859 0.016745 0.0207534 -0.0165451 
449 1 34.3637 15.4973 14.9618 -0.00186336 -0.0211982 0.00137619 
446 1 35.1327 14.292 15.0873 0.00941467 -0.00967092 -0.0215189 
283 2 31.2944 18.2672 35.0788 0.0215799 0.0141342 0.00381369 
458 2 34.8434 13.4299 15.5786 0.0692136 0.0771457 0.100083 
441 1 34.6027 16.7459 14.1835 0.0164364 -0.00199577 0.00222188 
461 2 33.2785 15.2844 14.8565 0.0149845 -0.0591747 0.0506081 
450 1 33.6587 17.7568 14.0297 0.0159026 -0.0274404 -0.0140702 
465 2 33.2175 19.7642 13.4306 -0.0177717 0.0525265 -0.0139252 
453 1 34.0351 18.98 13.4294 0.000316162 -0.00222321 -0.0329055 
443 1 35.3436 19.3636 13.0327 0.00186043 0.00408975 0.015731 
462 2 32.6149 18.168 14.2466 -0.0784678 0.0140076 0.00854105 
526 1 35.7752 33.0663 18.8112 -0.0014346 -0.000480975 0.0239318 
515 1 35.5616 31.7511 19.2374 0.008448 -0.0202271 0.00785861 
538 2 35.4664 34.0006 19.1348 0.0545608 -0.061516 -0.0121006 
272 1 33.9645 18.8139 35.4811 -0.00848409 0.00715639 -0.00873912 
533 2 33.0523 27.7024 19.9846 0.0346923 -0.0758885 0.0882211 
521 1 34.1048 27.7413 19.4829 -0.00748737 -0.0331412 0.00881034 
518 1 34.9 26.7322 18.8555 -0.00807392 -0.0134279 -0.00760525 
530 2 35.1539 25.6689 19.0119 -0.067688 -0.0110966 -0.000727164 
525 1 34.7726 31.3426 20.3653 0.0131247 -0.00624214 0.00391663 
522 1 34.1536 30.1544 20.3867 -0.0130581 0.00483606 0.0226786 
513 1 34.8373 29.0273 19.586 -0.00240477 -0.00443733 -0.000237885 
537 2 34.3327 31.7757 21.4629 0.0651415 -0.106166 -0.027692 
534 2 33.5644 29.7802 21.1019 -0.0127242 -0.0334988 -0.042321 
259 1 34.7844 14.0437 31.7166 0.0113533 -0.0138876 -0.0101646 
253 1 35.2509 14.979 32.6696 -0.00997856 0.0275727 0.00608754 
265 1 33.3136 13.9808 31.5477 0.00138317 -0.0150818 -0.0121049 
268 1 31.6534 16.453 33.8647 -0.0127547 -0.00225719 0.00915342 
280 2 30.5574 16.1951 34.2808 0.0472641 0.0412466 0.0209902 
279 2 31.2501 14.7391 31.5495 -0.0486532 -0.0619721 0.0655081 
267 1 32.1218 14.6894 32.0482 -0.021379 -0.00362702 0.0151332 
260 1 32.6856 15.5213 33.1313 -0.0201154 -0.0124749 -0.0191328 
254 1 34.0403 15.6558 33.3694 0.00422779 0.00302401 0.0126032 
277 2 32.9022 12.9677 31.3355 -0.112985 0.0055215 -0.0331864 
256 1 34.5087 16.9095 33.9747 -0.0365484 -0.00403704 0.0217562 
262 1 33.5326 17.8279 34.6716 -0.000433198 -0.00208175 0.00833003 
271 1 32.0227 17.6256 34.6002 0.00187481 -0.0119404 0.0139117 
454 1 35.6324 20.379 12.2048 -0.00843973 -0.0381777 -0.0136342 
278 2 35.4781 12.2965 30.6304 -5.90421e-05 -0.019787 -0.0181024 
258 1 35.867 17.3773 34.1815 -0.0111742 0.00779607 -0.0253577 
275 1 35.3635 18.9398 35.8727 -0.0194059 -0.0181639 -0.0161839 
284 2 32.7646 19.23 35.6253 0.037603 -0.0012112 -0.0388549 
27 2 49.3942 -11.2112 3.00421 0.0427716 -0.0272995 -0.00598909 
15 1 50.2398 -11.7366 2.58541 0.00295061 -0.0144863 0.00389157 
13 1 51.4569 -11.241 2.98906 0.0200294 -0.0158377 -0.00219956 
25 2 52.0392 -10.3987 3.20618 0.0785098 0.0423729 -0.0403431 
14 1 53.3423 -10.4568 1.38801 0.000849235 -0.00277198 0.0147608 
26 2 53.1505 -9.47999 1.65756 -0.0168455 -0.0276268 0.00917168 
7 1 52.8429 -11.6127 2.12328 -0.00982038 0.00705201 -0.00127484 
17 1 54.0316 -10.6238 0.156765 0.0132905 0.0191342 -0.0174788 
29 2 54.1623 -9.92261 -0.537815 0.0699298 0.0426328 0.0351447 
144 2 44.999 4.78424 4.66239 -0.107787 -0.0519118 -0.00163598 
143 2 44.3767 2.15786 4.14633 0.0330349 -0.0659556 0.0685654 
131 1 44.787 1.9472 5.06954 -0.0116114 -0.0189021 0.0101977 
132 1 45.8669 4.13025 5.08074 0.00119642 0.00252705 0.026654 
120 1 46.0277 2.77784 5.47863 0.000324742 -0.0214703 -0.0220308 
114 1 46.5364 2.7681 6.86158 -0.026927 -0.00925999 0.0118826 
142 2 47.2778 5.65974 4.30094 -0.054031 0.0269369 0.00396114 
130 1 47.1026 4.73865 4.85806 0.0167587 0.00136569 0.0225575 
141 2 50.0659 4.85192 4.96582 -0.0224473 -0.038932 0.00635402 
129 1 49.6438 4.35816 5.80402 0.00562404 0.000916675 0.0138835 
119 1 48.1987 4.25425 5.89794 -0.0236567 0.0186525 0.00100275 
113 1 47.832 3.54508 6.9763 -9.15782e-05 0.00190348 0.0342334 
126 1 50.1042 4.24316 7.19005 -0.028408 0.0133665 0.0270518 
138 2 50.624 5.1359 7.75398 0.00294951 -0.00840907 0.0409207 
115 1 49.3662 1.11478 9.64911 -0.0145085 -0.00926414 0.0219024 
124 1 45.3849 -0.381291 9.18161 0.000164305 -0.00148964 -0.00939979 
136 2 45.038 -1.46331 9.6787 -0.0609629 0.0380126 0.0647938 
127 1 44.9387 -0.480303 7.79834 -0.0251133 0.00798896 0.00602285 
139 2 44.3925 -1.22143 7.39052 0.00741537 0.0182665 0.00857363 
135 2 47.6723 -1.20128 10.5243 -0.0228122 -0.0487274 0.0356523 
352 2 58.8971 -9.68282 11.9695 -0.00113083 -0.157277 -0.0178205 
140 2 43.181 0.654495 5.59929 -0.110907 -0.0121681 0.000764602 
128 1 44.1823 0.954457 5.98813 0.00657623 0.011321 0.00616306 
118 1 45.1975 0.631902 6.94311 0.00769977 -0.00243344 -0.0130469 
112 1 46.165 1.67049 7.70665 0.00616433 -0.0116015 0.0131909 
116 1 46.7192 0.281405 9.51714 -0.01518 0.00339453 0.00513585 
110 1 47.0862 1.48953 8.7062 -0.00930837 0.0199637 0.00491312 
122 1 50.7309 1.42776 9.50625 -0.0272312 0.00423511 -0.0227389 
111 1 48.528 2.79949 7.831 -0.00875418 -0.0153368 0.011783 
117 1 49.8213 3.12628 8.16068 -0.0028229 0.00295241 0.00481815 
133 2 48.4383 0.584304 11.8672 -0.012922 -0.0369227 0.019134 
121 1 48.9002 0.319745 10.8841 0.00923797 -0.00242817 0.00571353 
125 1 50.7771 2.77395 9.14301 0.0110479 0.00257344 0.00944874 
137 2 51.4824 3.41258 8.85733 -0.00130801 0.0447038 0.0455397 
123 1 47.845 -0.397515 10.1301 0.00538941 -0.0138492 0.00729713 
109 1 48.352 1.66499 8.65938 -0.0261747 0.00901948 -0.00862422 
134 2 51.1179 0.843552 10.2118 0.106021 0.0117496 -0.0072504 
351 2 56.5383 -7.48022 11.3053 0.039259 0.0323051 -0.080563 
30 2 56.7805 -11.946 -0.633492 0.0999487 0.0429337 -0.0642226 
328 1 59.1319 -7.4807 15.1878 -0.00191702 -0.00109827 0.00527784 
329 1 58.14 -5.91783 17.0899 -0.00078668 0.00343913 -0.00783407 
327 1 57.1168 -5.87242 16.0953 0.021712 -0.00669865 -0.0143029 
325 1 57.1798 -6.48607 14.7145 0.00527094 -0.0158992 0.00350906 
330 1 59.0282 -6.99261 16.5691 0.0242626 0.0141243 -0.0154854 
326 1 58.0484 -7.45357 14.3395 -0.0138923 0.0141849 0.00342553 
331 1 55.7687 -6.18562 14.3145 -0.000739636 -0.00941524 0.00962392 
337 1 55.6937 -6.42508 12.8993 0.00350542 0.0151663 -0.0117943 
332 1 57.5662 -8.34681 13.1508 0.0111193 0.00435664 -0.0141776 
340 1 58.6479 -9.13296 12.8478 -0.00639205 -0.0412246 0.0050586 
339 1 56.6201 -7.47822 12.4734 0.00883214 0.00595837 0.00564847 
349 2 55.1225 -6.02071 12.1403 -0.0162421 -0.0595684 0.0388511 
350 2 53.9303 -6.29471 13.9437 -0.0419062 0.0105117 0.0532466 
338 1 54.5259 -5.57078 14.7462 0.0263117 -0.0137921 -0.0283356 
333 1 55.8282 -5.56211 16.7783 -0.0235177 0.0267218 -0.0195738 
341 1 54.4464 -5.54007 16.1612 0.00127923 -0.0086062 0.00550561 
353 2 53.8265 -4.87095 16.7204 0.104186 -0.0899917 -0.0210473 
342 1 56.2003 -4.72269 18.0048 -0.017941 0.0060108 -0.00178981 
335 1 58.001 -5.88485 18.5377 -0.00995293 -0.00913889 0.00839474 
343 1 59.6035 -9.35243 13.8891 -0.00929479 -0.0105911 0.0220025 
357 2 56.333 -6.45313 19.6774 0.0193323 -0.0932964 0.0420032 
346 1 59.1744 -6.47007 19.1746 -0.0156113 0.00666431 -0.00647102 
354 2 56.5183 -3.81877 17.9375 -0.131911 0.0782718 0.0286864 
345 1 56.702 -5.63744 19.0029 -0.00371609 0.00676583 0.0221458 
499 2 58.6035 -11.2493 22.3928 0.0121322 0.0129544 0.00223387 
358 2 59.264 -6.59878 20.2483 -0.0605632 0.0236208 -0.0533956 
11 1 54.3898 33.5118 -1.56633 -0.00903929 -0.00201009 -0.000860347 
9 1 54.4973 35.9341 0.0343767 0.0181673 0.0204842 -0.0241603 
468 2 37.286 21.2868 11.4267 -0.0342396 0.00300419 -0.0455529 
21 1 55.6207 34.3527 -1.55779 0.00630246 0.000373252 -0.0220383 
36 2 53.3638 30.2683 -0.684136 0.0183833 -0.00870806 -0.0253436 
35 2 51.2159 30.8386 -2.53109 0.0376863 -0.0193664 -0.0037355 
22 1 54.5097 32.0883 -1.92975 0.0052137 -0.000795342 -0.0249037 
23 1 51.2763 31.5422 -1.74938 0.0244497 0.00482541 0.00379644 
12 1 52.3114 31.6827 -0.702807 -0.00766563 0.012399 0.0156057 
24 1 53.6861 31.2818 -1.06041 0.00840025 -0.00748041 -0.0108768 
34 2 54.7781 31.3758 -2.66387 0.0230087 0.0268527 0.0590635 
28 2 48.078 34.1921 2.77752 -0.0194593 0.00835528 -0.000223295 
31 2 48.0005 32.0685 1.64534 0.0015702 -0.0367901 -0.11675 
19 1 48.953 32.568 1.40853 0.00772514 -0.00010845 0.0193582 
8 1 50.2261 34.8346 2.21847 0.0116859 -0.0083994 0.00916894 
1 1 52.7138 35.0465 1.64658 -0.0193287 -0.0499563 0.010304 
32 2 49.0739 31.9528 -1.41965 -0.0567259 -0.0266416 0.0964904 
16 1 48.9338 33.9692 1.99909 0.0137553 -0.00596918 -0.0100752 
20 1 50.1338 32.0384 -1.0722 0.0102118 0.0211135 -0.00442002 
10 1 50.3538 32.5955 0.422433 0.0186001 0.00212122 -0.0201798 
2 1 51.3915 34.4513 1.61383 0.0234626 -0.0103418 0.00302256 
4 1 51.3596 33.7267 0.36871 -0.0206072 -0.00465955 -0.0102658 
3 1 53.5522 34.9588 0.629379 -0.0200562 -0.000484842 0.00664228 
6 1 52.4904 33.2116 -0.49494 0.00553455 -0.00586399 0.00631793 
5 1 53.5243 33.9973 -0.582604 0.0341354 -0.00325526 -0.027543 
33 2 56.4381 33.6534 -1.62221 0.0212245 0.0392139 -0.0101446 
18 1 55.8938 35.4569 -0.71975 -0.010125 0.000606197 -0.0101134 
288 2 38.2006 18.9056 -11.3552 0.0614862 0.0751346 0.0411334 
436 1 38.8062 17.4533 13.8722 0.0174264 0.00262797 0.0227131 
434 1 38.3638 16.3646 14.5623 0.0160715 -0.000382478 0.00730173 
442 1 40.2626 18.0667 13.8275 0.00372222 0.00809146 0.00869461 
451 1 41.0225 16.8221 13.8507 -0.00374736 0.0013033 0.0164084 
440 1 39.3345 15.2855 14.9506 0.0025786 0.0112481 0.0371097 
460 2 41.6228 14.8389 14.5963 -0.0606849 -0.0170904 -0.034104 
463 2 42.1419 17.0423 13.811 -0.0349898 0.0362226 0.0381728 
448 1 40.6368 15.6534 14.4467 0.0210715 -0.00234764 0.00528393 
447 1 38.9933 14.0439 15.6297 -0.000216273 0.0284151 0.000822438 
459 2 39.9222 13.1199 15.9597 0.069829 0.0580075 -0.0583252 
433 1 36.9239 15.8773 14.3522 0.00528956 0.0003093 -0.00397011 
445 1 37.7118 13.7673 15.5689 -0.0045388 0.00488234 0.0190237 
457 2 37.6974 12.8154 16.0581 -0.0135385 -0.0581522 -0.00194241 
467 2 39.263 21.4663 12.9481 0.00149465 0.0112281 0.0176531 
264 1 36.3731 18.2325 35.4475 0.000741717 0.0340791 -0.0199251 
496 2 58.2426 34.5555 20.6927 -0.0199596 0.000466813 0.0178892 
444 1 38.0695 19.9423 12.81 -0.00357493 0.00418407 0.00890502 
455 1 39.3641 20.4502 13.2623 -0.0120803 -0.00326328 -0.0107739 
438 1 37.7884 18.4241 13.4287 0.00307529 -0.00614007 -0.0196318 
452 1 40.3519 19.5026 13.7563 0.0290215 -0.0260343 0.000898944 
464 2 41.4118 19.9724 14.1191 -0.00124638 -0.0569929 -0.197746 
519 1 38.7165 26.2435 17.6717 0.0269552 -0.00706909 0.00366949 
532 2 41.0459 26.8353 17.3092 -0.00509324 -0.0532407 -0.00104482 
520 1 40.5083 27.7798 17.0789 -0.0269338 -0.0177711 0.0108498 
512 1 38.9392 27.5669 17.0901 -0.0167263 0.000226754 -0.00461383 
517 1 37.2789 25.7465 17.557 -0.0118972 -0.0265903 0.00361834 
505 1 36.5429 28.1412 18.0505 0.00521505 0.0135915 -0.017668 
506 1 37.9961 28.4576 17.6596 -0.00281096 -0.0189181 -0.0118247 
523 1 40.9222 28.8816 16.8597 0.00567258 0.0029565 -0.00898612 
529 2 36.6213 24.7446 17.4629 0.0149784 0.0510071 -0.0476818 
531 2 39.3355 25.7206 18.3528 -0.0716975 -0.0964807 0.0736473 
508 1 38.7006 29.6681 17.65 -0.000759668 -0.00279303 0.00223806 
510 1 37.8779 30.77 18.2095 -0.0238972 -0.0314877 0.0113503 
514 1 39.8676 30.0807 17.0537 -0.00350936 -0.0122494 -0.000756004 
509 1 36.5393 30.7197 18.7361 -0.0129835 -0.0367487 0.00812962 
516 1 38.2986 32.1531 18.4464 0.00542758 0.00220331 0.0146708 
527 1 39.6936 32.6688 17.7526 -0.00917914 0.0238929 0.015065 
524 1 40.3651 31.4988 17.1806 0.00865548 -0.0203963 0.0134712 
539 2 40.0233 33.7036 17.8617 -0.0268078 0.0550288 -0.0339446 
478 1 59.741 35.9405 23.7082 0.00992246 0.00367578 0.0140356 
528 1 37.1657 33.0841 18.524 -0.0283147 -0.0221012 0.028531 
536 2 41.4636 31.5871 16.7591 -0.00365816 0.0701605 0.0572031 
540 2 37.5036 34.1802 18.4445 0.0143979 -0.0141757 0.0053117 
286 2 39.677 17.8726 35.0276 0.0423249 0.0285337 -0.0452724 
535 2 41.9853 28.8267 17.0258 0.00893117 -0.0794702 -0.0541594 
511 1 36.304 26.6755 18.0134 0.00986158 0.0153394 0.0297513 
507 1 36.0291 29.2642 18.8013 -0.00381091 -0.000316136 0.0352404 
483 1 57.3439 32.4028 22.3851 0.030751 -0.0114504 0.0125284 
481 1 57.0483 31.4438 23.5191 -0.00382827 0.00178008 -0.00117199 
493 2 56.458 30.6967 23.4311 0.0241822 0.0294729 -0.0241492 
476 1 58.095 33.5316 22.7609 -0.00407595 -0.0307637 0.0104291 
495 2 57.1129 32.1207 21.3683 -0.0276 0.0340039 0.0751096 
475 1 57.285 31.9896 24.8176 0.00633759 -0.00222241 0.00613831 
497 2 57.3861 30.262 27.8058 -0.0636329 0.0599754 0.0649832 
472 1 59.786 34.6864 24.4581 1.80115e-05 0.00577322 -0.00564195 
470 1 58.7502 33.85 24.1592 0.0322638 -0.00459352 0.0152236 
469 1 58.4029 32.9412 25.0586 0.00582134 -0.0159835 -0.00344107 
494 2 56.0843 30.6511 26.1286 -0.0968988 0.126552 -0.0233886 
477 1 58.6385 32.0683 27.107 0.0207794 0.00668467 0.0190651 
485 1 57.8525 30.8039 27.0217 -0.0119864 0.0103621 0.00975926 
471 1 59.0658 33.0906 26.2642 0.00997188 -0.0219842 -0.0126943 
482 1 56.9389 31.0985 26.0202 -0.0163521 -0.0223959 0.0228995 
486 1 59.469 31.84 28.2482 -0.00291235 -0.00352221 -0.00229106 
498 2 59.2305 30.8078 28.4918 -0.0731214 0.049923 -0.0584497 
263 1 38.2516 16.6073 34.0456 0.00837329 0.0194894 0.00703616 
276 1 37.8283 18.519 35.6179 0.0118215 -0.016893 0.00437655 
273 1 39.2687 16.0605 32.9599 0.000295793 -0.0010991 -0.0167881 
270 1 38.9497 15.0338 32.1407 0.0128947 -0.0174325 0.00651248 
257 1 36.8539 16.6587 33.6392 0.0030633 0.0226106 -0.0014999 
282 2 39.3695 14.3336 31.5226 0.0532591 0.0558375 -0.0656472 
484 1 58.4103 34.4895 21.8627 0.00357573 0.000847973 -0.0057284 
261 1 37.6889 14.5534 32.6648 -0.0103733 0.0107219 -0.0173794 
255 1 36.621 15.3276 32.7515 -0.0214349 -0.0227171 -0.0100331 
439 1 36.5169 14.6288 15.0701 0.0177997 0.0135009 0.0339647 
285 2 40.1131 16.7049 32.7796 0.0227662 0.0160974 -0.050281 
269 1 37.3347 13.2761 31.8255 0.00114101 -0.0112355 0.00173481 
281 2 37.9635 12.6579 31.5155 -0.0448496 0.0363633 -0.0512885 
274 1 38.7078 17.4951 35.1008 -0.0076382 -0.00298369 -0.00151579 
437 1 36.4075 18.3664 13.7204 -0.0155562 0.0133776 0.0216286 
266 1 35.95 13.2201 31.391 -0.0129651 -0.00774887 -0.00128426 
487 1 58.7069 35.765 22.6184 -0.0178527 -0.0219942 -0.0223187 
456 1 36.9788 20.6733 12.2798 -0.00341221 -0.00383419 0.0196653 
503 2 62.1083 -10.7917 25.417 -0.0458502 0.0514816 -0.0281383 
336 1 60.3883 -6.80772 17.2742 -0.00783883 0.0128121 -0.00369804 
347 1 61.5166 -7.47981 16.6167 -0.0177048 0.00357708 0.000676703 
344 1 61.5876 -8.14066 15.2307 -0.00715258 -0.0100959 -0.0013373 
359 2 62.2661 -6.79001 17.3134 -0.0744622 -0.047442 0.00136234 
356 2 62.6147 -8.59157 15.0889 -0.0418791 0.0947094 0.0377399 
334 1 60.3352 -8.35918 14.7265 -0.0229462 0.0039499 0.0252901 
348 1 60.4281 -6.52044 18.7232 -0.00872135 0.0267778 -0.00270299 
360 2 61.2079 -6.93444 19.3997 0.0480157 -0.00990746 -0.0545226 
488 1 60.5731 -10.9897 24.1621 -0.0128648 -0.00855412 0.035867 
154 1 69.4612 -5.03995 30.0312 -0.01964 0.0290406 0.0172947 
500 2 61.0171 -9.99242 24.3459 -0.047676 0.0417812 0.0189984 
155 1 73.3748 -6.66042 27.7007 0.0173065 -0.00450232 -0.0248881 
165 1 73.8621 -6.27593 26.49 -0.00354891 0.0284582 -0.0220158 
177 2 73.8018 -7.19736 25.5539 0.0492015 -0.0110594 0.0634842 
178 2 73.499 -8.57154 27.363 -0.0768277 0.0217232 -0.042701 
166 1 72.9767 -7.97749 28.0057 -0.0114921 -0.00421239 -0.0189278 
150 1 71.4262 -5.6589 28.8986 0.00681914 0.0131887 -0.000625244 
152 1 70.0507 -2.26006 29.5875 -0.0105256 -0.0294283 0.0329798 
160 1 69.0563 -2.53832 30.5828 -0.00636961 -0.0215228 0.00535041 
146 1 70.8097 -3.45662 28.9919 0.0102544 0.00448168 0.000381744 
159 1 70.4646 -0.999433 29.0105 0.011032 -0.0238842 -0.0166542 
172 2 68.4042 -1.76082 30.7523 0.0489734 0.0408157 0.00965971 
145 1 72.1339 -3.23042 28.2967 0.00127522 -0.00191684 -0.00108536 
148 1 70.4128 -4.68289 29.046 0.0015878 -0.000537807 0.00778307 
174 2 74.8747 -5.24699 24.9645 -0.0804301 0.0455995 -0.0472999 
157 1 71.427 -0.753688 28.0509 -0.0205811 -0.0133104 0.0242025 
149 1 72.7754 -5.55184 28.1872 -0.00218962 -0.00272183 0.0257288 
162 1 74.3546 -5.07029 25.874 -0.0116488 0.0143807 -0.00872302 
161 1 74.8066 -2.60259 26.4512 0.00224266 0.0195901 0.00347461 
170 2 74.0252 -0.915029 27.4236 0.0410382 -0.0133209 0.0596486 
173 2 75.805 -2.93827 26.9067 -0.020722 -0.00344109 -0.0792288 
153 1 74.2114 -3.9597 26.7769 0.0112863 -0.0113701 -0.00546102 
151 1 72.3837 -1.85071 27.6559 -0.00597511 -0.00125129 -0.021166 
158 1 73.7335 -1.67459 26.9519 0.0197812 0.00907277 -0.0150186 
147 1 73.2112 -4.1622 27.8978 -0.00537024 -0.0115399 0.0151612 
171 2 69.7758 -0.278242 29.6384 0.00687158 -0.0745985 0.0349548 
169 2 72.0758 0.106979 28.1383 0.104576 -0.12161 -0.0230492 
156 1 71.4902 -6.8897 29.4436 0.0119617 0.0114683 -0.00848954 
167 1 70.482 -7.24151 30.5527 0.017404 -0.038923 0.00595519 
179 2 71.0299 -7.81642 31.0747 0.0419198 0.00406793 -0.0775069 
180 2 71.5286 -9.27543 28.8449 -0.0520733 -0.0113319 0.0681938 
168 1 71.9704 -8.1531 28.979 -0.0120123 0.000994692 -0.0252065 
164 1 69.2405 -6.49364 30.5512 -0.00269415 -0.021989 -0.0175293 
176 2 68.6044 -6.6457 31.1483 0.00493541 0.0344974 -0.044414 
163 1 68.9184 -3.97079 31.17 0.00615281 -0.020784 -0.00952204 
175 2 67.9862 -3.71668 31.7248 -0.098008 0.10698 -0.0155284 