ITEM: TIMESTEP
730000
ITEM: NUMBER OF ATOMS
576
ITEM: BOX BOUNDS pp pp pp
-1.2000000000000000e+01 8.4000000000000000e+01
-1.2000000000000000e+01 3.6000000000000000e+01
-1.2000000000000000e+01 3.6000000000000000e+01
ITEM: ATOMS id type x y z vx vy vz 
29 2 -4.01255 8.94631 10.0796 -0.0629499 0.0854719 0.00994662 
14 1 -4.02923 9.81003 9.2512 -0.0101206 -0.00396544 0.0103083 
17 1 -3.45912 10.9913 9.71857 -0.00798114 0.011181 0.00861669 
403 1 -2.08592 11.7052 11.4274 -0.0120384 -0.00200509 -0.00180854 
423 2 -0.028103 11.8874 11.968 0.0117341 -0.0100053 0.0843923 
464 2 -11.1283 -9.36002 -1.09515 0.123704 -0.0678586 0.0437126 
64 2 -10.9962 -10.0725 -1.16152 0.122052 0.0949734 0.0746457 
352 2 -7.80202 2.12504 34.4522 0.0010566 0.064065 0.0952224 
574 2 -7.12033 2.12197 34.8303 -0.0351902 -0.00784149 -0.00102325 
432 2 -8.0577 11.4014 12.8049 0.0188561 -0.0449114 0.0534336 
422 2 -4.26453 11.9767 14.1264 0.0383629 0.0503642 0.0386864 
410 1 -2.75912 11.723 12.6506 0.0231212 -0.0128284 0.000972136 
105 2 11.6547 -1.31475 22.689 0.0639901 -0.124623 0.0773773 
271 1 4.58633 20.1979 -6.8902 -0.0156709 -0.0100222 -0.00620912 
268 1 4.40865 19.1137 -5.88432 0.0130499 -0.00955702 0.0236861 
280 2 3.52757 18.5204 -5.89479 -0.0158154 -0.0411913 0.0489817 
287 2 6.11238 20.7648 -8.57705 -0.0109287 0.0303766 0.023408 
262 1 5.09625 21.5897 -7.05275 -0.0033144 0.0110568 0.0126667 
272 1 5.9583 21.8228 -8.29649 -0.0160424 0.0104917 -0.00837578 
275 1 5.93741 23.3297 -8.20638 -0.00799084 -0.0112971 -0.0134172 
256 1 4.83923 22.3333 -5.69321 -0.028181 0.00588451 0.0126502 
264 1 6.0382 24.3601 -7.17332 -0.00843044 -0.0153008 0.0166699 
288 2 6.26781 26.2663 -8.21378 -0.0159787 -0.0527557 0.00942536 
276 1 6.09341 25.8196 -7.3087 0.0148096 -0.0376098 0.000427305 
279 2 4.35459 18.1357 -3.4923 -0.0298233 -0.100835 -0.0515825 
277 2 5.54903 19.3944 -1.37234 0.0733113 0.0337565 -0.0509384 
260 1 4.67582 19.8751 -4.63608 -0.0124315 -0.000873325 -0.000850713 
254 1 4.93299 21.4982 -4.52979 -0.00347925 0.030051 -0.0342348 
267 1 4.54936 19.1988 -3.47246 -0.00208053 -0.000193095 -0.0233077 
265 1 5.11062 19.9372 -2.35357 -0.00265903 0.023343 -0.00625455 
258 1 5.87641 23.5039 -5.81961 -0.0162457 0.00299471 -0.0117876 
269 1 6.10328 23.3761 -1.05769 -0.014731 0.0253622 -0.0281335 
266 1 5.57228 22.1492 -1.01675 0.00277704 0.029837 0.000206305 
261 1 6.53377 24.1177 -2.21915 -0.00629757 -0.0150554 -0.00271854 
259 1 5.30373 21.3014 -2.17666 -0.00788761 0.0322457 0.0181539 
255 1 6.49409 23.183 -3.43867 0.0167622 -0.0226089 0.00853487 
257 1 6.4743 23.8841 -4.61424 0.00182863 -0.00508321 0.00778564 
253 1 5.75353 21.8546 -3.56637 -0.0207943 0.0102552 0.00694568 
281 2 6.43772 23.9228 -0.0999314 -0.0207794 0.0109218 0.0474914 
273 1 7.05849 25.7068 -3.58977 0.0277415 0.0194459 0.0156203 
274 1 6.54015 26.427 -6.03794 -0.00265266 0.00199666 -0.00827303 
286 2 7.15239 27.457 -6.62973 0.0582031 -0.0700164 0.0313434 
263 1 6.8221 25.5339 -4.82634 0.0148819 0.00959471 -0.00436998 
270 1 7.05126 25.4892 -2.10146 -0.0071129 -0.00416899 0.0128567 
285 2 7.80071 25.9059 -1.3767 0.0416967 0.0260707 0.00552609 
426 2 -8.18633 13.5223 9.89414 0.0404409 -0.0127451 0.00802191 
405 1 -8.05379 13.8108 11.1742 -0.0101789 -0.0205034 0.00913145 
406 1 -2.47076 16.7386 8.34433 0.0102647 -0.025096 -0.0130495 
415 1 -2.89847 15.935 9.39469 0.00213276 -0.0153115 0.0152475 
411 1 -0.763319 13.6792 11.4905 -0.0163432 -0.00507362 -0.00412518 
397 1 -2.94593 12.0678 10.1988 0.00536367 0.0137123 0.0172858 
431 2 -2.08293 18.8246 6.06666 0.0736524 -0.109707 -0.088609 
399 1 -6.81383 14.763 11.214 -0.0344321 -0.00643751 -0.01555 
398 1 -2.96534 13.6354 10.1352 -0.0318348 -0.0130703 -0.0167247 
404 1 -1.88992 14.4307 10.7206 -0.00362069 -0.00915072 0.00996644 
412 1 -2.39652 15.8739 10.8051 0.00361965 0.000389211 -0.00405985 
400 1 -3.76211 14.6701 9.48232 -0.000418107 -0.0101494 -0.0304929 
402 1 -5.07276 14.3297 9.70003 -0.0271798 -0.0281579 -0.0178733 
424 2 -2.13257 17.0064 10.888 0.0183505 -0.00881918 0.0126211 
401 1 -6.18805 13.9544 10.298 0.0112217 0.000548631 -0.00338198 
409 1 -0.783514 12.1712 11.2216 0.00848397 -0.00176227 0.0161503 
428 2 -1.18689 17.7517 4.94077 -0.0467493 -0.0724677 -0.0113897 
416 1 -1.90191 17.2986 7.14809 0.0295936 -0.0008506 -0.0158546 
419 1 -1.66058 18.053 5.99632 0.0162792 -0.0264368 -0.0173615 
124 1 11.4801 20.8807 29.297 -0.0114039 0.0182579 0.00413064 
407 1 -6.85037 15.7018 12.5654 0.00498858 -0.00186634 -0.0184095 
417 1 -6.92881 16.0217 13.6223 0.00707019 0.0208004 -0.00695547 
429 2 -7.06556 16.6511 14.4724 -0.0736035 -0.0385377 -0.0284096 
139 2 11.2907 19.9368 29.682 0.167772 0.0559631 0.00691163 
418 1 -10.2904 12.4523 12.4803 0.00955531 0.0357133 -0.00564599 
99 2 0.149392 20.3571 29.0923 0.13937 -0.0197581 -0.00443645 
427 2 0.0308684 14.2771 12.0671 0.00678785 0.0612322 -0.028776 
413 1 -3.84511 12.1089 13.0103 0.00185862 -0.0143528 0.0035612 
425 2 -4.54577 12.6293 12.1179 -0.0327841 -0.0236788 -0.0294156 
85 1 1.12209 20.3427 29.2067 0.0108945 -0.0190066 -0.0213485 
349 2 10.362 16.1677 16.6683 -0.0262736 0.0486889 0.0449594 
351 2 7.62598 16.16 16.3465 -0.0172644 0.0405215 -0.0564502 
339 1 8.33808 16.8792 16.3461 -0.0169296 -0.00412543 0.00596098 
337 1 9.75579 17.0532 16.4501 -0.00368063 0.0101177 -0.0259079 
344 1 5.09616 21.1804 15.3325 0.00370298 -0.0228489 -0.00698143 
356 2 4.35797 20.7599 16.0961 0.0154196 0.0397483 -0.0689415 
347 1 5.61814 22.5861 15.3747 0.0131673 -0.00339501 -0.0112816 
334 1 5.91556 20.0255 15.632 -0.00176399 0.00222743 -0.0258656 
359 2 5.0334 23.0449 14.6591 0.00522204 0.0358241 -0.0477783 
343 1 5.70372 18.9101 14.6221 0.00112598 -0.00507414 3.57702e-05 
340 1 6.33713 17.6642 15.1052 -0.00460467 -0.00283049 -0.0111149 
80 1 3.67677 20.1221 29.075 0.0131051 0.0138293 0.0120639 
100 2 4.72321 20.0806 29.103 -0.0112912 -0.0937812 0.0122965 
346 1 8.96879 24.3061 15.2762 0.0131339 -0.0184787 0.0187351 
335 1 9.86002 23.2515 15.8394 0.00246152 0.0101047 0.0364645 
345 1 11.1477 23.4874 16.2353 -0.00989536 0.0118762 0.0195313 
336 1 6.92649 22.9279 15.9463 -0.000357249 -0.0176128 -0.0105601 
328 1 7.44073 20.5519 15.7209 0.00514064 0.0041015 -0.00110071 
330 1 7.8834 21.7325 16.3133 -0.00803235 -0.00988695 -0.00160963 
329 1 9.13956 22.027 16.3914 -0.0302898 -0.00318402 -0.0224532 
327 1 10.1306 21.0161 16.3934 0.0108875 0.0208118 -0.00445447 
325 1 9.72674 19.6203 16.2874 -0.00694919 0.00954616 -0.0227691 
333 1 11.5569 21.198 16.7965 -0.0285456 0.0134834 0.00473331 
331 1 10.3961 18.456 16.5825 0.00656315 -0.0265636 0.00277604 
326 1 8.05559 19.3372 15.9226 0.0187527 -0.0193847 -0.00833045 
348 1 7.47394 24.0922 15.1611 0.0268224 -0.0120738 0.0310247 
332 1 7.67626 18.0416 15.6752 -0.00790426 -0.00891132 -0.0211503 
360 2 7.15023 24.2595 14.1564 0.0503988 -0.00718414 -0.0126668 
358 2 9.32278 25.113 14.5747 0.0248895 0.00641639 0.0381711 
496 2 10.5273 21.1827 28.9837 0.110126 -0.0909282 -0.00873086 
414 1 -8.78026 13.3952 12.32 -0.0148823 0.00652734 -0.000913629 
31 2 -11.2084 25.9417 21.9319 0.0274981 0.0461154 0.0680104 
127 1 11.5534 21.2766 27.5253 -0.0299578 0.00159528 0.00793615 
87 1 2.48265 20.2865 29.3483 -0.0231476 -0.0159801 0.0427302 
342 1 12.0084 22.5503 16.911 0.00820341 0.00323491 0.00515115 
216 2 11.682 24.2993 15.9257 0.0186284 -0.0367089 0.043515 
338 1 11.8764 18.6563 16.9694 0.0214826 0.00788625 -0.0123959 
420 1 -11.7373 13.483 13.1101 0.0148998 0.0292434 -0.00521284 
408 1 -8.94778 12.1207 13.1066 -0.0103479 0.00286584 -0.000867966 
504 2 20.1873 -3.81568 -9.80769 0.0678558 0.0717087 0.0174388 
71 2 20.3046 -3.57001 -8.84972 -0.0104619 0.0456835 -0.0192243 
240 1 16.3346 5.70309 -6.86269 0.00640029 -0.000614941 0.0247329 
252 2 16.1333 5.08188 -7.74586 -0.0236507 0.032967 0.060812 
236 1 18.1378 4.33948 -8.08755 0.00876337 0.00433493 0.00919882 
228 1 17.8408 5.45995 -7.12274 0.00578078 -0.00659774 -0.0106484 
222 1 18.7396 5.21084 -6.10564 0.0145334 0.0038372 0.0178537 
239 1 19.2683 3.48237 -8.40068 -0.00247443 -0.00839931 -0.0109107 
226 1 20.4494 4.19062 -7.5341 -0.0234298 0.0065261 -0.00396129 
251 2 19.3481 2.38762 -8.7051 0.00417016 0.0143266 0.0820147 
220 1 20.1823 5.15363 -6.44066 -0.0103459 0.00415574 -0.0109417 
235 1 21.6149 4.97374 -8.0769 -0.00918503 0.00709199 0.0211088 
247 2 20.8574 5.88231 -8.02651 -0.0212585 0.016794 -0.0257568 
244 2 23.5129 4.59774 -7.30931 0.00121834 -0.00165034 0.0260977 
232 1 22.727 5.2969 -7.22499 -0.0043093 0.0210464 -0.0211277 
357 2 15.0288 5.39046 -5.04676 0.0125075 0.00849086 -0.0299119 
238 1 15.8967 5.81709 -5.50395 -0.0219912 0.0316391 0.0215996 
227 1 17.1355 6.47799 -4.60062 0.0135653 0.016754 0.0168543 
249 2 15.7443 5.84733 -2.77516 -0.0800911 0.056785 -0.091852 
237 1 16.6407 6.48575 -3.21065 -0.0120166 0.0229694 -0.00334455 
234 1 17.7986 6.52651 -2.40687 -0.00545972 0.0047907 -0.00118871 
246 2 18.0475 6.64541 -1.25452 0.0169314 -0.0409337 -0.0221001 
221 1 18.3515 6.10928 -4.97916 0.0143189 -0.00475856 0.0203634 
219 1 19.3661 6.42582 -3.87963 -0.000748141 0.00904562 -0.016582 
217 1 20.6743 6.49301 -4.14202 0.0103572 0.0105771 0.00894337 
224 1 22.3088 5.40978 -5.98667 -0.00857589 0.00379361 -0.0300749 
218 1 20.9802 5.81778 -5.47804 -0.00778408 -0.011325 -0.0253089 
231 1 23.3439 5.22267 -4.97415 -0.0200323 0.0496843 -0.0272499 
229 1 23.0181 5.71855 -3.91286 0.00406622 -0.010597 0.000557219 
241 2 23.7344 5.58754 -3.15982 -0.0160188 0.0599684 -0.0199325 
243 2 24.2899 5.00572 -5.16773 -0.0106521 -0.0154493 0.000793143 
225 1 19.1727 6.65532 -2.66757 0.0167512 0.000877137 0.00494935 
223 1 21.6539 6.07568 -3.35758 0.00374818 -0.0199506 -0.00464509 
245 2 20.0982 6.27714 -0.763962 -0.0874252 -0.0533329 0.021569 
233 1 20.2887 6.55081 -1.68822 -0.00172006 0.00407274 0.0147799 
242 2 21.9656 5.0173 -1.14032 -0.0227924 -0.128474 0.0569029 
230 1 21.3392 5.60191 -1.96337 -0.0186552 0.000362955 0.0138421 
554 1 14.8152 -5.43309 2.29302 0.030722 0.00194532 0.00612764 
544 1 16.2507 -10.601 3.96382 -0.0016925 -0.00949304 -0.0238789 
542 1 15.2736 -9.59066 4.75955 -0.0263634 -0.00539998 0.00713297 
555 1 14.3758 -9.96869 5.78288 -0.000838532 -0.0212388 0.00964424 
541 1 14.9356 -8.09068 4.41583 0.00386439 -0.00838319 0.000783712 
547 1 14.202 -7.19456 4.98395 -0.0144768 -0.00595734 0.0231118 
543 1 15.793 -7.6029 3.28075 -0.00639211 0.0293341 0.0140958 
545 1 16.8319 -8.59041 2.65805 -0.020386 -0.0125038 0.00452177 
549 1 16.0222 -6.53128 2.52628 0.00634439 0.00781146 -0.00681818 
546 1 17.0827 -9.93439 2.98979 -0.00181848 0.0042661 -0.0073655 
553 1 13.1025 -7.65653 5.89036 0.0129986 0.017748 0.00272851 
569 2 14.4346 -6.04906 4.87599 0.0307457 0.017541 -0.043421 
550 1 16.0325 -11.9929 4.37151 0.019299 -0.00777103 -0.00825538 
576 2 17.8097 -11.9457 1.9062 0.0588887 -0.0284007 0.048556 
421 2 19.3441 -10.3275 1.05596 -0.119383 0.0436954 -0.0618326 
562 1 18.5455 -9.87052 1.45008 -0.0100353 -0.00416481 -0.0196923 
551 1 17.773 -8.4363 1.50697 -0.031727 -0.0186398 -0.00811552 
561 1 18.004 -7.0866 1.04504 -0.000135885 0.0216431 0.00398714 
564 1 17.7357 -10.8447 1.98608 0.0208462 -0.0245896 -0.011513 
573 2 18.7654 -6.73406 0.255423 -0.0938201 -0.0756519 0.0156415 
566 2 13.9679 -4.4394 3.68089 0.00675705 -0.0153963 0.0757409 
557 1 14.1021 -4.73659 2.51824 0.00292459 0.00386018 0.01777 
558 1 16.8467 -6.49768 1.59435 0.00192858 0.00710721 -0.0123187 
570 2 16.6643 -5.58375 1.1367 -0.0276671 -0.0330172 0.045484 
548 1 13.3804 -9.01458 6.28169 0.0172375 0.0230893 -0.0205199 
568 2 14.1275 -11.842 7.46983 0.0736107 0.071388 0.0184822 
556 1 14.7539 -11.2728 6.52101 -0.017771 -0.0274599 0.0112639 
540 2 33.7001 -9.57956 -3.24768 -0.0261745 -0.0773756 0.0114911 
567 2 12.7646 -9.35513 7.23162 0.074253 -0.0561103 0.0273286 
565 2 12.1165 -7.3631 6.28154 0.0238345 0.0300497 -0.0199121 
537 2 34.4351 -9.097 -3.1957 -0.0234404 0.0226505 -0.0243868 
176 2 30.759 -11.2252 32.5018 0.018699 -0.0167831 0.0723778 
466 2 12.3686 -1.57196 21.9573 -0.142417 -0.0218617 -0.0671509 
248 2 30.3289 -11.7817 31.9435 -0.0652317 0.00677222 0.0262441 
560 1 16.8532 35.0099 4.04149 0.0146237 -0.0101446 0.0133312 
552 1 17.2404 33.7437 3.744 0.00660156 0.00588876 -0.00878396 
563 1 16.827 32.5077 3.07056 0.03717 0.0196462 -0.0158008 
572 2 16.9877 32.6467 2.18629 -0.0303737 0.0547738 0.0378428 
571 2 16.4188 35.2747 6.07759 -0.077663 0.00493472 0.00936498 
559 1 15.4806 35.7395 5.68814 -0.0219967 -0.0117344 0.000720551 
177 2 34.9956 12.1736 10.6111 -0.0120325 0.0116626 -0.0249841 
354 2 13.1286 22.323 17.1362 0.0616965 0.0193923 0.00919514 
341 1 12.4273 19.8658 16.6895 -0.0163977 0.0208759 0.0166286 
353 2 13.5133 20.3234 16.3064 -0.0656215 -0.0170119 0.00325298 
134 2 15.1939 24.3582 33.2848 -0.0179902 0.0501872 0.0817596 
143 2 13.7796 22.5806 23.7725 0.00303308 -0.0157098 -0.0856386 
350 2 12.155 17.6046 17.0658 -0.00542514 0.063861 0.00127325 
140 2 12.7932 20.5197 25.8254 -0.0469616 0.0058906 0.0577595 
116 1 12.5969 22.0281 29.9872 0.028254 0.00481247 0.0154687 
110 1 13.4853 22.9404 29.4158 -0.00491369 0.00580114 -0.0107615 
125 1 16.0762 25.3559 31.4057 -0.0263488 -0.0125841 0.0115588 
112 1 13.5997 22.816 28.056 -0.0053169 -0.000354383 -0.00638095 
118 1 12.7086 21.9588 27.1367 -0.00609184 -0.0177728 0.00182006 
114 1 14.3435 23.713 27.2935 -0.00120443 -0.013194 0.0187568 
131 1 13.7932 22.5393 24.8695 -0.0268751 0.000920188 0.0191211 
128 1 13.3741 21.5039 25.8413 -0.00388889 -0.00379246 -0.0363647 
120 1 14.4747 23.4622 25.8948 -0.0210294 0.00911942 -0.00203337 
138 2 18.4022 25.944 29.7621 0.0789156 -0.0310145 0.0651141 
111 1 15.0728 24.909 29.4227 -0.00159995 0.0116461 0.00589588 
113 1 15.1296 24.7945 27.8774 -0.00382717 0.00644733 -0.00662981 
119 1 15.8519 25.9139 27.1535 -0.0438687 0.028231 -0.015109 
130 1 16.1203 25.4131 25.7851 -0.0119924 -0.00490497 -0.0219157 
132 1 15.3114 24.2225 25.0929 0.0102554 -0.00562973 -0.00749714 
126 1 17.3615 26.2017 29.2364 -0.0399985 0.0133342 -0.00322514 
142 2 16.6966 26.0922 24.9036 -0.0360844 -0.100027 -0.0616116 
141 2 17.1924 27.6433 27.6483 -0.0562191 0.0205566 0.0426046 
129 1 16.8145 26.7139 28.0592 0.00657711 -0.0119793 -0.026094 
109 1 14.003 24.1803 30.1057 0.00393554 0.00414332 -0.00218323 
123 1 12.3387 22.5021 31.2755 -0.0153769 0.00184555 0.0211701 
121 1 13.0118 23.4457 32.265 0.00474295 0.0178613 0.0350888 
115 1 14.1206 23.8931 31.4229 -0.0158204 -0.0148972 0.0156132 
122 1 15.1635 24.8319 32.2823 -0.0129882 -0.00104223 -0.00956217 
117 1 15.9998 25.7217 29.9408 -0.00561172 0.0279818 0.0100578 
137 2 17.0418 25.568 32.1454 -0.0522787 -0.0139041 -0.0703633 
250 2 42.0551 7.86986 8.33547 -0.050288 -0.0258842 0.0176259 
33 2 38.9719 10.4892 21.0934 -0.0107023 -0.0380714 -0.0378768 
494 2 58.4068 25.0643 -8.11869 -0.0215697 0.0591638 -0.0262738 
108 2 59.5527 22.3721 -6.86962 -0.0139237 0.0844274 0.0649874 
95 1 55.5125 24.1529 5.84047 0.0449987 -0.0167191 0.00395733 
482 1 59.3256 24.3664 -8.23932 0.0176946 0.015754 -0.0157459 
498 2 59.0561 25.238 -10.2469 -0.00123825 0.0281386 -0.0382903 
485 1 59.7578 24.8079 -9.57639 -0.000715965 0.0294918 0.0160056 
467 2 47.3663 28.4732 -7.05536 -0.0229858 -0.0314869 -0.0294908 
455 1 47.296 28.4925 -8.11022 0.0189972 -0.00652501 -0.0189843 
452 1 46.0695 28.2104 -8.47027 0.0109886 -0.0250269 -0.0057377 
442 1 45.3987 28.6451 -9.91357 0.0284745 0.0108887 0.00546955 
438 1 47.8626 28.4495 -10.2152 0.0135489 -0.00376461 0.0174346 
463 2 43.3279 28.0886 -10.0466 -0.0329843 0.0174888 -0.0232399 
436 1 46.4839 29.01 -10.77 -0.0141898 0.022524 0.0123525 
451 1 44.0524 29.0069 -10.2151 0.00545441 -0.0215809 -0.00801805 
444 1 48.568 28.5682 -9.03487 -0.00272309 0.0238532 0.0051626 
456 1 49.9525 28.2016 -9.47055 0.0242795 0.00205119 -0.0133661 
437 1 48.8957 29.0453 -11.0576 0.0178193 0.00308216 -0.00701158 
468 2 50.8508 27.6243 -9.00304 0.0318394 0.112197 0.077773 
454 1 50.3101 29.0261 -10.6463 -0.00290119 -0.0141161 -0.0125738 
443 1 51.6281 29.2643 -11.1723 -0.00993877 -0.00601134 -0.00530155 
465 2 52.1326 30.3764 -11.4847 0.0891138 -0.0134829 -0.0185162 
453 1 52.599 28.3187 -11.2649 -0.00866783 0.00518011 0.00355968 
475 1 59.779 23.0358 -7.65933 -0.038015 0.00998546 0.0155083 
433 1 47.5161 30.6817 -12.031 0.00826966 -0.0396817 -0.00882216 
459 2 44.2952 33.062 -11.4899 0.029734 -0.0148786 0.0281022 
434 1 46.4071 30.0822 -11.7128 -0.00638423 -0.00189946 -0.0169262 
440 1 45.0975 30.643 -11.5932 -0.00278138 -0.0113444 -0.0197836 
448 1 43.9327 29.7554 -11.3761 -0.00374549 0.00516026 -0.00406131 
447 1 44.7486 31.9843 -11.5968 -0.00229202 0.0210231 -0.015735 
445 1 46.1008 32.6327 -11.8277 0.0164001 -0.0127466 -0.00603286 
450 1 53.6923 27.7853 -11.8204 0.0198599 -0.00335107 0.0183106 
92 1 55.4364 24.1764 7.21004 -0.0342142 -0.024937 -0.00078359 
101 2 57.0474 17.4546 3.02078 0.0715891 0.0797472 0.0893918 
89 1 56.4735 17.9198 3.88182 -0.00382452 0.00652636 0.0104566 
102 2 54.3264 19.5771 1.32491 0.0176156 0.0495661 0.0729308 
106 2 53.2287 22.7147 1.7835 -0.0562427 -0.0294668 0.0411509 
94 1 53.9331 22.5093 2.75798 -0.0113494 0.00049582 0.0103324 
93 1 54.2782 19.8154 2.53603 -0.00560949 0.0160589 -0.00949406 
96 1 53.7911 23.1364 4.08921 -0.00988477 0.0346324 -0.012788 
75 1 55.5193 19.7578 5.08708 -0.0116764 -0.0236461 -0.00359473 
84 1 55.1688 23.0503 4.85913 -0.00654764 0.0305033 -0.00160763 
83 1 54.3662 21.2052 3.28254 -0.00422118 -0.0105157 -0.0155525 
77 1 54.9503 20.9434 4.47621 0.0020542 -0.0334045 -0.0182488 
90 1 54.8932 18.4755 2.88685 0.0166808 -0.0019396 -0.0164267 
78 1 55.7607 21.9312 5.41751 -0.00311244 -0.0135776 0.0146041 
81 1 55.6068 18.7765 4.28418 -0.0189765 0.00556455 -0.0122555 
107 2 55.2699 25.2279 5.48723 0.0689981 0.00195106 0.0343608 
86 1 57.2423 17.5303 5.1825 -0.00645654 -0.00410686 -0.0192894 
98 2 58.0125 16.8696 5.32745 0.017953 0.0736841 -0.00906071 
79 1 57.381 18.4388 6.22978 0.0195136 0.0259976 0.00858396 
91 1 55.1989 22.7298 9.29626 0.00425019 0.0157568 -0.0177854 
73 1 56.5545 19.5722 6.33411 -0.00406754 0.00393661 -0.0120994 
82 1 55.7917 22.8491 7.74187 0.00288719 -0.00983867 0.0165187 
97 2 58.255 18.6145 6.83517 -0.0489363 -0.0590131 -0.0289934 
355 2 57.1841 20.1657 8.44072 0.0197356 0.0266819 -0.0152231 
76 1 56.1004 21.6642 7.07871 -0.000867501 0.00870428 0.0120748 
74 1 56.641 20.3572 7.45417 -0.0179038 -0.0184341 0.0224066 
103 2 55.6288 23.6507 11.3251 0.00362367 0.0225794 -0.0571345 
88 1 55.2472 23.1115 10.3562 -0.0323883 -0.0169612 0.000370318 
104 2 55.1397 25.0701 7.92255 -0.0213264 -0.0487462 -0.00133823 
462 2 54.0892 29.1228 -11.7193 0.0173225 -0.0063921 -0.0481272 
457 2 46.4854 33.5506 -11.7375 -0.109959 0.00652284 0.0313754 
460 2 42.8438 29.8962 -11.6721 0.0236675 0.0108862 0.020851 
435 1 48.6701 30.0058 35.9019 -0.00916218 -0.0216501 -0.00200308 
284 2 59.8395 15.5963 32.8989 0.0700432 -0.143838 0.0620395 
439 1 47.3674 32.1305 35.6517 -0.0108627 0.0112679 -0.0262127 
441 1 49.372 30.7728 34.7012 0.0091042 -0.0123491 0.0225715 
446 1 48.5265 32.9304 34.9536 0.0191246 0.0193019 -0.00991984 
449 1 49.6728 32.1756 34.8119 -0.0278135 -0.000576381 0.0184163 
458 2 50.5222 32.6553 34.0804 -0.0063482 -0.0442048 -0.0296782 
461 2 49.8738 29.8698 34.1596 -0.103758 -0.0442474 -0.026071 
207 2 74.7538 -8.15156 -11.5436 0.115566 -0.00411669 -0.0602392 
208 2 75.4443 -9.50892 -9.77836 0.0316051 -0.0438632 -0.0707862 
196 1 75.7768 -8.47581 -9.32419 0.0220848 -0.0237545 -0.0105652 
199 1 75.7566 -8.82116 -7.74597 -0.00565564 -0.00839875 0.0118507 
195 1 75.4531 -7.37423 -11.1614 0.00606818 0.0159969 0.0015337 
190 1 75.7433 -8.05561 -6.54478 0.0192945 0.0327223 0.0221269 
188 1 75.7578 -7.33837 -9.64677 -0.015777 -0.0059453 0.0213421 
211 2 75.387 -9.80818 -7.99595 0.0813565 0.0200765 0.0832742 
182 1 75.793 -6.2136 -8.42886 -0.00109098 -0.00590449 -0.00226285 
184 1 75.6349 -6.49876 -6.98905 -0.0177315 0.00627869 -0.0180413 
206 2 77.3807 -4.23978 -11.9268 -0.0877358 -0.0322559 -0.0720475 
282 2 76.7667 -11.5095 -11.0456 -0.0226696 0.0370582 0.0523864 
193 1 75.1879 -5.89052 -11.2615 -0.0135588 -0.0139581 -0.0245311 
187 1 76.0676 -4.82281 -10.5303 0.00463499 0.0153572 -0.0178437 
181 1 76.1875 -5.00371 -9.12139 0.0113032 -0.00387331 0.0121455 
183 1 77.1701 -4.17491 -8.19943 0.0101288 -0.0164891 0.0166761 
186 1 75.7684 -5.32547 -6.18149 0.0104496 -0.0256554 0.0273498 
185 1 76.5355 -4.01623 -6.90351 -0.0330939 -0.00891016 -0.00993752 
189 1 77.8771 -3.06832 -9.02043 0.00150258 -0.0174166 0.0158585 
191 1 77.2783 -2.84805 -6.12646 0.00768141 0.022385 -0.00272787 
194 1 77.252 -4.18016 -10.8006 -0.00519169 0.00576161 -0.00947495 
197 1 78.0689 -3.05625 -10.4859 0.00900215 0.0121549 0.00334073 
201 1 77.9698 -1.84914 -6.8424 0.0212362 0.00680717 0.015767 
198 1 78.4578 -2.09892 -8.18725 0.00918787 -0.0186697 -0.0220596 
209 2 78.8834 -2.61808 -11.1815 0.078751 0.0573471 0.0597518 
213 2 78.4519 -0.760363 -6.32424 -0.0271719 -0.00303743 0.00724536 
133 2 79.1795 -1.28578 -8.23798 0.0209262 -0.0181318 0.0367323 
212 2 76.4996 -9.48885 -5.18136 -0.0376745 0.0562435 -0.100496 
200 1 76.3111 -8.32452 -5.27965 0.015762 -0.014409 -0.00165926 
203 1 75.987 -7.15957 -4.34684 -0.00384893 0.0261638 -0.0209646 
215 2 75.9231 -7.05204 -3.32658 0.00252729 -0.0155068 -0.00672106 
192 1 76.3124 -5.8257 -4.95265 -0.00636356 0.0093443 -0.00101288 
204 1 76.9444 -5.17876 -3.841 0.00326747 -0.00445974 0.0167335 
202 1 77.6045 -4.08146 -3.92074 -0.00872501 -0.0336847 0.00433736 
214 2 78.0537 -3.04347 -4.09185 0.036233 -0.0767762 -0.0186132 
170 2 72.537 -11.721 0.634395 0.000507747 -0.0187192 0.0384878 
171 2 74.3965 -11.1542 2.67911 0.052253 -0.079364 0.0230675 
157 1 73.9253 -11.3194 3.61348 0.006181 0.00904223 0.00185065 
159 1 73.2084 -10.5932 4.61178 -0.00554064 0.0137164 -0.00849773 
379 1 77.9091 -10.9162 1.34389 0.00366909 -0.00312044 0.0300284 
376 1 77.4544 -9.5584 1.48704 -0.000497204 -0.0199542 -0.00938746 
370 1 77.8973 -11.4288 2.67268 -0.0122834 0.0054112 0.0241613 
375 1 76.344 -7.40823 2.42137 2.82848e-05 -0.0120146 -0.00292932 
364 1 77.7932 -10.8433 3.96785 -0.015817 0.0188586 0.00946358 
363 1 77.0751 -9.12722 6.24828 -0.0300538 -0.00531546 -0.00891157 
362 1 77.2996 -9.47482 3.75576 0.0081229 0.00446546 -0.0188462 
361 1 76.8067 -8.72948 4.93626 0.0204447 -0.0338168 0.00769535 
368 1 77.4436 -8.47731 2.55771 0.00561627 0.00482748 0.0166485 
387 2 75.6009 -5.86879 3.92387 0.0638059 0.00450045 -0.0266156 
367 1 75.8275 -7.60766 4.9662 0.0336143 -0.000948838 0.0222138 
373 1 75.7031 -6.91737 3.78226 0.0126599 0.0246259 -0.0110686 
388 2 75.6042 -7.38536 1.54121 0.0425738 0.0874114 0.0338088 
365 1 77.4357 -10.4739 6.69736 -0.0250278 0.00381716 -0.000809099 
366 1 77.6015 -11.1885 5.52913 -0.00875178 0.00882698 -0.0125582 
169 2 73.2575 -9.80412 5.36768 0.0796255 0.0271987 0.0428769 
391 2 77.6531 -11.2551 0.306778 0.0125783 -0.0236172 -0.0126605 
381 1 77.425 -9.93799 8.73721 -0.00546962 0.00447562 0.019543 
371 1 77.3201 -11.1671 7.9857 -0.0104345 0.00491658 -0.0103947 
386 2 75.3007 -5.54062 5.69239 -0.0232176 -0.0596834 -0.0186523 
378 1 77.3152 -8.45426 8.72194 0.00421259 -0.00618102 -0.000781707 
389 2 75.4242 -6.50166 8.25685 -0.000329616 0.0993514 0.0952748 
369 1 76.6022 -8.30126 7.43825 -0.00397735 -0.00627 0.0324132 
160 1 72.4003 -11.2967 6.96424 0.0123023 0.0185781 0.00358671 
495 2 78.2506 -7.98377 8.98357 -0.0328416 -0.0428775 0.0511621 
377 1 75.8886 -7.05587 7.40179 0.0121172 -0.00018165 0.0168178 
393 2 77.4562 -10.1813 9.6994 -0.0582808 -0.032053 -0.025289 
152 1 72.9329 -11.6782 5.68925 -0.0057755 -0.0141326 -0.005739 
374 1 75.7404 -6.4922 6.05578 0.0116589 -0.00621264 -0.0398637 
179 2 70.814 6.10055 8.78465 -0.0085987 0.0848211 -0.00358751 
539 2 70.8998 6.24067 7.93121 -0.0292098 0.0211056 0.0298039 
205 2 74.3527 -5.63083 -11.8289 0.0646228 -0.00244589 -0.0564446 
135 2 77.5521 -11.5443 -11.0498 0.0741992 0.0493322 -0.126339 
536 2 71.3019 5.59125 17.0105 0.0426183 -0.0367265 0.0685226 
527 1 69.9715 6.22178 18.4041 0.0125044 -0.00278907 0.00485877 
509 1 70.1519 10.163 18.5274 -0.00693301 -0.021943 -0.00157126 
507 1 70.2751 11.4714 17.9571 0.0209317 0.00786033 -0.0111117 
505 1 71.1073 11.5018 16.663 -0.000278448 0.00688624 0.0108496 
516 1 69.7614 7.7521 18.7155 0.0195999 0.00217404 0.00478407 
510 1 70.1533 8.83984 17.7953 -0.00591406 0.00742428 0.00225498 
506 1 71.4264 10.1015 16.1596 0.0047484 -0.0073575 0.0238808 
508 1 70.8085 8.73913 16.5697 0.0108227 -0.00678893 -0.0178042 
524 1 70.7115 6.38122 17.1781 -0.00977488 -0.0229521 0.0100615 
512 1 72.2842 10.0328 15.0054 0.00703645 -0.0387059 0.00103267 
514 1 71.5081 7.41308 16.3382 -0.0272999 0.00800255 0.00613314 
523 1 72.3622 7.35427 15.1986 0.0104339 0.0170376 0.00211808 
531 2 73.1859 11.185 13.0839 0.0951252 -0.0353749 0.0572522 
519 1 72.8037 11.2332 14.2235 0.0112339 -0.0106009 0.00575977 
520 1 72.7009 8.71186 14.6042 0.0109772 -0.00304274 0.0184849 
535 2 73.0069 6.51995 15.0174 -0.0540133 -0.0687816 0.0541571 
532 2 72.9414 8.41153 13.5509 -0.0537658 -0.0784511 -0.0401966 
319 2 75.3969 -6.36947 24.8108 0.0762999 0.0459048 0.069022 
304 1 77.228 -5.62914 23.704 0.0190765 0.00457738 0.0371322 
307 1 76.1102 -6.61688 24.0365 -0.0260811 0.00382879 0.0344854 
292 1 77.9674 -8.58025 23.8821 -0.00394388 -0.0171856 0.0233098 
296 1 78.5063 -6.13781 23.7742 -0.00313882 0.00123725 0.00956619 
290 1 78.6982 -7.55441 23.2353 -0.00543521 -0.0417212 -0.0236099 
305 1 82.2725 -8.53641 21.9542 0.00157507 0.00517766 0.0126987 
293 1 79.3145 -10.1599 23.1841 0.0179654 0.00627099 0.012878 
291 1 80.2625 -9.3081 22.9672 -0.0085162 0.0257136 -0.0107609 
289 1 79.9116 -7.84352 22.9439 0.00521886 0.0187276 -0.0288708 
299 1 80.8016 -11.8706 20.6088 -0.0106048 -0.0271677 0.0206191 
309 1 81.1438 -10.4854 20.9635 -0.0158504 -0.00894689 -0.0140113 
297 1 81.0486 -9.16583 21.6542 -0.00678059 -0.0214948 -0.00669207 
301 1 80.8742 -5.33146 23.1222 0.0155725 -0.0207999 -0.0320235 
315 2 79.431 -4.0626 23.6171 0.0218577 -0.0133258 -0.00762923 
295 1 81.1279 -6.69491 22.7894 0.0137491 -0.0153922 -0.00598214 
317 2 83.1731 -8.89998 21.8134 0.0418543 -0.0314359 -0.103807 
302 1 82.3841 -7.26892 22.6139 0.00994612 -0.0157221 0.00421286 
324 2 79.3454 -12.128 25.3924 -0.0116068 -0.0977055 -0.0816826 
310 1 79.2169 -11.6789 22.4642 0.0103974 0.0113367 -0.0108028 
316 2 77.2766 -4.6976 23.3584 -0.0696996 0.00469801 -0.0267081 
303 1 79.6431 -5.12981 23.4461 -0.00186657 -0.00238514 -0.0149032 
314 2 83.3363 -6.9839 22.7765 -0.0174525 0.0866058 0.0325025 
528 1 69.5936 7.99279 19.9976 0.0138765 -0.0143884 0.0310407 
515 1 69.685 10.4333 19.8301 0.00695895 0.0139873 0.0418019 
526 1 69.3853 9.04242 20.6794 -0.024396 -0.0081471 0.0244045 
525 1 70.1571 11.7845 19.9733 0.00979948 0.0121794 0.0134462 
538 2 69.8171 8.65792 21.5743 -0.0407003 -0.065262 0.00376146 
323 2 75.5853 -10.703 25.6652 -0.0100366 0.00165184 0.058958 
320 2 74.4092 -8.64996 24.7887 0.0129956 -0.00523803 0.0622848 
308 1 75.4042 -9.04247 24.512 -0.0132914 -0.0183839 -0.0155752 
311 1 76.087 -10.1512 25.034 -0.00708249 0.029181 -0.00427373 
298 1 76.5037 -8.11725 24.128 0.0107761 0.00271523 -0.023944 
300 1 77.586 -10.6269 25.2273 -0.0218189 0.0149214 -0.00225216 
294 1 78.1784 -9.92855 24.1629 0.0178568 0.0367644 0.00445263 
313 2 81.3589 -4.48926 22.524 0.0143552 -0.00928677 0.0393069 
312 1 78.1372 -11.8308 25.9854 -0.00683973 -0.00673751 -0.00564934 
278 2 66.9124 -11.2726 23.9108 -0.0592117 0.0438263 0.0150625 
477 1 61.1798 24.8705 -9.93244 0.0016084 -0.00281575 0.00943329 
471 1 61.7765 23.9439 -8.91968 -0.00716372 0.0207911 -0.0120241 
488 1 61.8978 25.3477 -10.8909 -0.00469736 -0.0129632 0.0461348 
469 1 61.1805 22.9033 -8.02115 0.0302589 -0.0123026 -0.0169477 
491 1 63.3626 25.0818 -10.961 -0.00608277 0.0101058 -0.0148831 
163 1 72.0513 35.5521 7.87116 0.0100956 -0.023611 0.0101707 
470 1 64.1177 23.5336 -7.62135 0.00203728 0.0030222 -0.0123685 
480 1 64.7591 27.4747 -7.54548 -0.00546133 -0.00390361 0.0253142 
497 2 65.03 23.7995 -10.3841 0.0534313 0.05503 -0.0888678 
474 1 63.915 23.8664 -10.2445 -0.0083387 0.0138837 -0.0139974 
479 1 63.235 23.4782 -8.8969 0.000328345 -0.0293382 -0.0407619 
473 1 64.9884 26.0081 -7.70847 0.0123956 0.0223553 0.0180978 
472 1 65.183 24.6329 -7.48548 0.0291154 -0.0166839 -0.0215279 
490 1 65.8893 28.2808 -6.88338 0.00186926 -0.000123119 -0.000736251 
492 1 67.1442 28.7213 -6.54704 0.0261401 0.0130944 -0.00586045 
502 2 68.3544 30.9043 -7.20923 -0.0983085 -0.00145736 0.043226 
489 1 67.7885 30.1177 -7.47385 -0.00108618 0.00309098 -0.000650689 
486 1 67.3047 30.3285 -8.52479 -0.0169492 -0.0143901 0.0101404 
384 1 77.2411 34.4438 6.66113 0.0143949 0.0079845 0.0183273 
382 1 77.4247 35.2996 7.82681 0.00959152 0.00196927 -0.0054967 
483 1 62.3743 20.6194 -7.38775 0.0220132 -0.0326124 -0.0179463 
493 2 61.644 20.042 -7.82316 -0.0164771 -0.0986122 -0.030304 
481 1 62.3945 21.9974 -7.27113 0.00314475 0.000730907 -0.0264923 
476 1 63.4043 22.869 -6.62943 -0.00324884 0.00634885 -0.000446208 
484 1 64.3383 22.4959 -5.41759 0.00388772 -0.0116442 -0.0140528 
499 2 63.7505 22.3876 -4.40632 0.124235 -0.0859263 0.0858543 
487 1 65.4694 23.3686 -5.62616 -0.00951044 -0.0118769 -0.000315803 
478 1 66.0181 24.4185 -6.21641 8.14162e-05 -0.00362037 -0.0225317 
503 2 66.7922 24.9553 -5.66463 0.0399276 -0.00043067 -0.00830239 
174 2 70.2645 31.0349 -0.260115 0.00660038 -0.0678791 -0.043446 
173 2 71.1547 34.2218 0.308606 0.0568945 -0.0254357 0.0224331 
165 1 70.7404 31.5254 0.75478 -0.0155722 -0.012999 -0.00176191 
161 1 71.9082 34.4929 1.15379 0.0153492 0.00840118 -0.0243655 
162 1 70.8912 32.4291 1.52119 0.0132567 0.00539104 -0.0210516 
153 1 71.4152 33.5411 2.36351 0.00637899 -0.00101432 0.0196056 
158 1 72.7204 35.6536 1.55573 0.0113356 0.0143385 -0.0327267 
147 1 71.8925 33.6011 3.73665 0.00143765 -0.0161133 -0.0246953 
149 1 71.7825 32.7868 5.01493 0.0328747 -0.0212893 -0.0185287 
166 1 71.0676 30.3546 5.88665 0.00269671 -0.00123135 -0.0300268 
155 1 70.7887 31.5595 5.12926 -0.00153245 0.0364251 0.0185944 