ITEM: TIMESTEP
140000
ITEM: NUMBER OF ATOMS
576
ITEM: BOX BOUNDS pp pp pp
-1.2000000000000000e+01 8.4000000000000000e+01
-1.2000000000000000e+01 3.6000000000000000e+01
-1.2000000000000000e+01 3.6000000000000000e+01
ITEM: ATOMS id type x y z vx vy vz 
285 2 8.07337 8.09261 -9.14935 0.00621091 -0.0516787 0.129576 
273 1 8.91435 8.80678 -9.41667 -0.00522934 -0.0353433 -0.0109588 
263 1 10.2232 9.1632 -8.76359 -0.0111036 0.0256325 0.00207738 
286 2 8.81671 8.282 -7.16262 -0.0632856 -0.0373148 -0.0263689 
270 1 8.62046 9.60051 -10.5256 -0.0175535 -0.031745 0.00708969 
274 1 10.0334 8.59856 -7.5308 -0.00623997 0.0165919 -0.0176643 
282 2 7.77857 8.95039 -10.9486 0.00242551 0.0274983 0.0526488 
255 1 10.7191 10.9836 -10.1286 0.0101208 -0.00309064 -0.00767177 
257 1 11.2074 10.0699 -9.2037 -0.0303349 0.0048618 0.00219798 
261 1 9.39573 10.7476 -10.6965 0.00120548 -0.00424142 -0.0350804 
47 1 10.3654 7.2858 -0.300113 0.0053038 -0.0130004 -0.00286495 
69 2 9.48589 5.96829 -1.66179 0.0383541 0.00870043 0.0278446 
58 1 9.38779 6.43451 0.475482 0.00199341 -0.0155391 -0.0225619 
70 2 8.44371 6.07431 0.355257 0.0731819 -0.00658779 0.0845841 
57 1 10.2235 6.84452 -1.6889 0.0214317 0.00035785 0.0267524 
561 1 11.1929 11.1597 -1.94058 -0.0292419 0.0117561 -0.00545253 
54 1 10.8825 7.40507 -2.80799 -0.0161424 -0.0146274 0.02723 
276 1 11.0322 8.89881 -6.62938 -0.013758 0.014725 0.0126201 
143 2 9.46083 -10.2734 5.07015 0.0504275 0.055917 -0.0428998 
120 1 10.5745 -11.8653 4.49883 -0.00121601 -0.0249599 0.0161902 
563 1 6.90883 11.5319 1.90701 0.017457 -0.000824856 0.00407546 
131 1 10.2874 -10.9935 5.37367 -0.0168377 -0.0362534 0.00791882 
140 2 10.9909 -9.38632 6.58176 0.0415986 0.0581785 -0.0286431 
575 2 6.45339 10.5339 1.85301 -0.00727908 -0.00956277 -0.053791 
562 1 9.97908 10.2769 -0.20696 0.00284565 0.00368897 -0.00345971 
564 1 8.75604 10.4385 0.50552 0.0246137 0.00746057 -0.0183314 
60 1 9.80108 6.57775 1.90009 -0.00818529 0.00939623 0.00900032 
551 1 10.503 11.5083 -0.692574 -0.0164 0.00052167 -0.0197274 
72 2 9.15305 5.71987 2.12052 -0.00428918 -0.0838822 0.0120105 
48 1 11.099 6.82069 2.45875 -0.00897721 -0.00936241 -0.00424342 
576 2 8.19865 9.50813 0.79152 -0.0216981 -0.0630396 -0.0414281 
59 1 11.8544 6.7285 3.94626 -0.00121128 -0.001291 -0.0125548 
574 2 10.1458 9.33747 -0.955455 0.0512076 -0.0169851 -0.0532605 
552 1 8.03194 11.5573 0.9352 0.00950514 -0.0142575 -0.0126672 
128 1 11.2839 -10.2965 6.03357 -0.00711997 -0.00953127 -0.0270656 
66 2 10.7798 8.33073 -3.21041 -0.0392168 0.00174688 -0.00390721 
41 1 11.7772 7.71598 -0.0361192 0.000942892 -0.00668836 -0.00814894 
288 2 11.3961 8.52262 -5.59595 -0.0148543 0.00218048 0.0194625 
253 1 11.6485 11.9169 -10.4988 -0.01274 0.00296842 0.00913705 
264 1 11.9788 10.072 -6.9769 0.00257792 -0.00648327 0.00733985 
269 1 8.90832 11.7591 -11.7539 0.0171209 -0.0176656 0.0333013 
144 2 8.65764 -11.6822 2.97891 -0.0157646 0.0599656 0.0514365 
573 2 11.7929 10.3702 -2.06781 -0.00302277 -0.0177487 -0.0532662 
281 2 7.88136 11.566 -11.8688 0.0252192 0.0584543 0.0324706 
547 1 11.1378 16.4745 0.205057 -0.00625304 -0.0114847 0.00577239 
554 1 11.6293 16.0869 -1.11814 0.0156342 0.0144411 0.00102239 
558 1 11.3761 12.5792 -2.27153 0.00116258 -0.0133156 -0.00972536 
549 1 11.1293 13.7898 -1.44611 0.0159176 -0.000282493 0.00507321 
543 1 10.8126 13.832 -0.0984213 -0.0035561 -0.0141963 0.00931143 
541 1 10.7971 14.9874 0.833041 -0.0084019 -0.0161651 -0.0230004 
259 1 11.2811 12.9827 -11.485 -0.0216879 -0.00119026 0.00823271 
565 2 10.9276 18.3073 -0.0197709 -0.0433971 -0.012724 -0.0248532 
557 1 11.4621 15.021 -1.96702 0.0303907 0.0289778 -0.000880611 
572 2 5.17832 12.4762 2.64095 -0.0259824 -0.0113562 0.0625979 
560 1 6.20201 12.7915 2.32624 0.027504 0.00887851 0.0076062 
571 2 5.62699 15.6362 2.67881 -0.0581817 0.0807986 0.0162723 
555 1 9.28215 17.242 1.46241 -0.0190073 0.0478455 0.00944808 
553 1 10.372 17.7016 0.540697 0.00504663 -0.00405298 0.00491525 
567 2 8.39581 17.8476 2.00295 0.0975395 -0.0114714 0.101374 
548 1 8.9208 16.1571 2.08951 0.0367377 0.00922082 0.000541708 
556 1 7.48128 16.3945 2.94685 0.00027397 -0.0252928 0.00748107 
559 1 6.66701 15.2005 2.96196 -0.0129727 -0.0249561 -0.0115234 
550 1 7.32383 13.8705 2.43909 0.0181192 -0.00442678 0.00230697 
544 1 8.76229 13.7181 1.92198 0.013578 0.0066296 -0.000716065 
542 1 9.52467 14.9818 1.68525 0.00664126 -0.0140422 -0.0160887 
546 1 9.02702 12.7136 0.785327 0.00557673 0.00707776 0.00052773 
545 1 10.2845 12.6179 0.262582 0.000843494 0.0160167 0.0336656 
568 2 7.55299 17.102 3.77271 -0.0211869 -0.0497584 -0.0188177 
129 1 11.2367 32.6457 2.46188 -0.0046771 -0.0103636 0.0235259 
141 2 10.5769 32.231 1.71108 0.0116932 -0.0644028 -0.038553 
119 1 11.1845 33.9472 2.83454 0.000686453 -0.00334661 0.00103446 
130 1 9.99917 34.7768 2.79761 0.00313287 0.0139881 0.00845693 
142 2 9.21941 34.6949 2.05217 0.00592049 0.0704667 0.00642447 
569 2 11.5506 15.3788 -3.00418 0.0113007 0.0757529 0.0294652 
132 1 9.75079 35.9024 3.35834 -0.0207802 0.0289579 -0.00503248 
114 1 11.8776 35.5137 4.5628 -0.0112773 -0.0261441 0.0198069 
566 2 11.9074 17.1172 -1.24132 -0.0172752 0.00518957 0.00422861 
570 2 11.9444 12.8645 -3.27323 -0.0444318 0.0207496 0.00118676 
34 2 -1.48137 16.4847 21.7202 -0.0440621 -0.00425488 -0.0330661 
22 1 -1.12646 17.219 22.5614 0.0243709 -0.00920122 -0.0187633 
33 2 -3.40175 17.7471 20.692 8.01972e-05 -0.0956983 -0.059885 
24 1 -0.336607 17.0473 23.5327 -0.0125894 0.0126841 -0.0002028 
36 2 -0.183928 15.9394 23.6976 -0.0111156 -0.0561175 0.00686922 
30 2 -5.34739 19.485 21.6173 0.0864322 0.0073418 0.0685853 
29 2 -5.42564 21.0546 23.2208 -0.042365 0.0378252 -0.026256 
17 1 -4.54275 21.6255 23.2276 0.0306665 -0.0176841 -0.000148017 
18 1 -4.28873 19.4904 21.9606 0.0257235 -0.0172815 0.00854548 
21 1 -3.2367 18.6077 21.3258 -0.0061825 0.00132132 -0.0433612 
9 1 -3.74989 20.4627 22.4402 0.0246458 -0.0163679 0.00874365 
14 1 -4.01805 22.7143 23.7162 -0.0240355 0.0070298 -0.0280399 
11 1 -1.99529 18.228 21.9419 -0.00276003 -0.0033694 0.00805132 
3 1 -2.41117 20.4974 22.8406 0.00979825 0.00404808 0.0166299 
5 1 -1.60459 19.3758 22.8284 0.0156942 -0.0382545 0.028916 
26 2 -4.63936 23.4191 24.1392 0.0415874 0.0764103 0.0103797 
35 2 0.773565 17.1569 26.37 0.00932196 -0.111849 -0.0432623 
1 1 -2.07165 21.7064 23.5924 0.0246415 -0.0197659 -0.0207533 
12 1 -0.0648591 18.0879 24.3736 0.0112842 -0.0040799 0.0106842 
6 1 -0.525372 19.3017 23.7075 0.00778466 -0.00669191 -0.0370892 
4 1 -0.410218 20.3865 24.6165 0.030825 0.00742266 0.00602307 
23 1 0.493698 18.1164 25.5785 0.00948099 -0.00262215 0.0046352 
10 1 0.255825 20.2661 25.9383 0.0102503 -0.0158536 -0.00420773 
20 1 0.679664 19.1103 26.6554 0.0060944 0.0314913 -0.0370372 
2 1 -0.993021 21.6974 24.1644 -0.0108217 0.0111993 0.00890598 
19 1 0.247924 21.4044 26.8619 0.0277934 -0.0359496 -0.000553165 
7 1 -2.55539 22.9143 23.3408 0.0107601 0.00208325 -0.00392001 
8 1 -0.898676 22.5332 25.3984 0.0100405 -0.00733854 0.0179395 
16 1 0.3729 22.7685 26.1866 0.00226778 0.00593196 -0.00968164 
32 2 1.24512 19.3059 27.6032 -0.0759058 -0.0169758 -0.0227266 
31 2 0.655677 21.0764 27.984 0.0122179 0.0176301 -0.0788609 
25 2 -2.9374 24.8638 24.371 -0.00578221 0.0774207 -0.0249672 
13 1 -2.29096 24.0346 24.2147 0.0143071 -0.0192094 -0.00523888 
27 2 -1.51512 24.6959 25.99 -0.0049829 -0.0488081 0.0269385 
15 1 -1.4876 23.8637 25.2924 0.00521112 0.0234952 0.0105457 
28 2 1.13251 22.8558 25.3675 0.000486455 -0.0221298 -0.0143482 
278 2 10.2679 13.3328 34.8387 -0.0741105 0.0520622 0.0459129 
266 1 10.0089 12.9218 35.9159 -0.0141599 0.0256395 -0.0120479 
483 1 33.3463 4.75795 10.3788 -0.00556126 -0.0156236 0.0170947 
380 1 34.9991 -6.70926 -11.9058 0.023135 -0.0166775 -0.0371612 
372 1 33.2114 -8.62298 -11.1556 -0.0166449 -0.011729 0.00363944 
471 1 35.9482 7.54824 8.53617 -0.00273107 -0.0356778 0.03821 
364 1 35.4866 -8.09524 -9.78553 -0.0189517 0.0143372 0.00779177 
365 1 33.4102 -9.53704 -8.78041 -0.0175061 -0.00143873 -0.0341864 
382 1 31.3064 -9.71824 -10.0068 0.0112232 -0.00306506 -0.00486596 
384 1 31.836 -9.13142 -11.1265 0.0234558 -0.00955381 -0.0198316 
394 2 30.5453 -10.475 -9.87101 -0.0931548 0.00456241 0.0224095 
366 1 33.9558 -8.73526 -9.88872 -0.00180489 -0.00287375 -0.00714819 
484 1 34.765 2.89341 8.93082 0.0191196 -0.015584 -0.00889091 
363 1 34.2607 -9.38624 -7.65365 0.00861557 -0.0198448 0.000100333 
371 1 32.1003 -10.2345 -8.65152 -0.000553523 0.0252105 -0.00666331 
381 1 31.5815 -11.2518 -7.73207 0.000212929 -0.0305507 -0.0192883 
393 2 30.7686 -11.8164 -8.16793 -0.00427315 0.00246516 0.00853403 
337 1 35.8342 -4.76832 8.7897 -0.00592186 -0.00649729 -0.00186715 
361 1 35.8549 -9.11878 -7.677 -0.00223128 0.0236821 -0.0273057 
374 1 35.7378 -9.96737 -5.28555 -0.0102165 0.012681 -0.0269777 
539 2 33.613 6.26754 -11.9065 -0.0819343 0.0169151 -0.0931374 
272 1 13.7447 11.9124 -6.42668 0.00602009 0.00561791 -0.0117191 
475 1 33.7948 7.09924 9.57317 0.0173155 -0.0259316 0.0325675 
258 1 12.0957 10.6778 -8.32257 -0.00748426 0.0159528 0.0127684 
275 1 12.7877 10.804 -5.99964 0.00903491 0.0304529 0.0133288 
470 1 35.1651 5.33434 8.67013 -0.0153106 0.0056017 0.00408889 
485 1 34.5559 9.27605 9.42536 0.012467 -0.0145913 0.0254308 
497 2 34.9136 10.1999 9.76127 0.0943533 0.11373 -0.0279679 
494 2 32.8183 8.54541 10.6656 -0.0302607 0.0313031 -0.00699465 
256 1 13.0414 11.7127 -8.64452 -0.0400827 -0.019978 -0.0129345 
495 2 32.5221 4.11046 10.9386 -0.059617 0.0309045 0.0543772 
378 1 32.302 -11.0963 -6.52287 0.00776641 -0.0210083 -0.00752285 
369 1 33.4859 -10.2091 -6.5855 0.0116836 -0.00241236 -0.0176841 
390 2 32.0395 -11.3043 -5.45646 -0.0811468 0.0337193 0.010203 
389 2 33.9611 -10.5074 -4.49812 0.0118259 -0.00717985 -0.0443887 
377 1 34.3819 -10.2027 -5.38483 -0.0133948 0.0198218 0.00422706 
481 1 32.799 5.9542 10.1552 -0.0136519 0.00413742 1.46555e-06 
49 1 16.1226 5.9722 -1.39157 0.0151302 0.00558803 0.00175767 
287 2 12.8192 11.1007 -4.85041 -0.08893 -0.0292203 0.025174 
61 2 16.7877 6.45491 -2.24328 -0.0157568 0.041076 0.0487236 
37 1 14.1488 7.57494 -0.689337 -0.0186071 0.0283185 0.0108381 
53 1 13.4046 8.09688 -3.45542 -0.0214363 -0.00711265 0.00610496 
50 1 14.6622 7.7636 -2.93603 -0.0102563 -0.0126136 0.0327692 
65 2 13.5228 9.00201 -4.19847 -0.0328092 -0.0510517 -0.0287725 
62 2 15.5573 8.49654 -3.34885 -0.0221437 -0.0176396 -0.109096 
45 1 12.3344 7.94242 -2.41266 -0.00379302 0.00662473 0.0102336 
43 1 14.9159 6.7134 -1.76427 -0.0260884 0.0140628 0.00476149 
39 1 12.7235 7.48466 -1.06332 -0.0147255 -0.0087377 -0.0101379 
477 1 35.8239 8.80829 8.97746 0.0368094 0.00790822 0.0136118 
493 2 31.7907 6.746 10.1461 -0.0424526 -0.0107268 -0.135955 
370 1 35.9501 -7.09801 -10.6942 0.0004756 -0.00185061 -0.00620125 
482 1 33.5339 8.38094 9.78155 -0.00218423 -0.0025537 0.00989697 
118 1 12.4425 -10.8592 6.63497 -0.011103 0.00265422 0.024513 
476 1 34.341 4.31803 9.44532 -0.00489725 -0.00592847 0.0215883 
469 1 34.7417 6.65468 8.51637 -0.00737483 0.0157915 0.00163503 
64 2 17.1686 6.45825 2.94782 0.0259341 -0.125471 -0.068001 
51 1 16.8864 6.34548 -0.181627 0.00320317 0.0136869 0.00746933 
63 2 17.3103 7.24346 -1.01603 0.0973233 0.0835427 -0.0626651 
68 2 13.6244 7.26926 4.79194 0.0643014 -0.0280608 0.0774037 
56 1 13.2334 6.63336 4.02078 0.0143803 0.00254258 -0.0182406 
42 1 12.0236 7.02846 1.31266 -0.0103556 -0.0145022 -0.000919941 
40 1 13.4521 6.86168 1.49474 0.0162604 -0.0044945 -0.000367356 
38 1 14.5828 7.30951 0.613632 0.0169991 0.017205 -0.00289748 
46 1 14.0881 6.23544 2.8596 -0.0156151 -0.023951 -0.000328984 
55 1 15.2927 5.26846 2.74024 0.00538556 -0.00437015 0.0228604 
44 1 15.8718 6.70705 0.946713 -0.0111002 0.0140588 0.00306178 
52 1 16.1933 6.3913 2.34641 -0.0014752 -0.0257021 -0.0176472 
67 2 15.5216 4.38903 2.2403 0.0192302 -0.0326596 -0.00817578 
127 1 13.1822 -10.5571 7.81499 0.000737995 -0.0170734 0.0186968 
139 2 13.0673 -9.77124 8.74877 -0.00787315 -0.0618837 0.0677841 
124 1 14.0892 -11.3832 8.34831 -0.0100885 -0.000155852 0.0322949 
136 2 14.3897 -11.1803 9.30986 0.0582575 0.00850357 -0.00644397 
357 2 30.051 0.0305746 9.5137 -0.00383406 -0.0244622 0.0303369 
345 1 30.9113 -0.723932 9.64766 0.00943513 -0.0205579 0.00860718 
326 1 34.901 -3.35456 11.1682 0.015362 -0.0136558 0.00388756 
353 2 31.1217 -4.6141 7.64455 0.0706645 0.0173463 0.0676736 
338 1 33.3977 -4.7397 8.05404 0.0024023 0.0137762 -0.0284997 
354 2 29.8063 -1.70986 8.54836 0.00693123 -0.0784543 -0.0506547 
342 1 30.952 -1.90599 8.91797 -0.000565655 0.00526614 0.00689644 
331 1 34.4663 -4.31125 9.01838 -0.0269909 0.0165604 0.0116662 
325 1 34.2339 -3.27248 9.89618 0.0111399 0.0110552 0.00628983 
540 2 35.4437 4.35837 -11.4666 -0.0262404 -0.00211324 0.0114411 
341 1 31.9833 -4.43345 8.24357 -0.00879708 -0.0231417 0.00561425 
335 1 31.4707 -0.989877 11.0678 -0.00557806 0.0219661 -0.0143434 
333 1 32.0735 -2.83706 8.85638 -0.0243057 -0.0160697 -0.0337412 
350 2 33.4083 -4.55946 6.9274 -0.0742931 -0.0134008 0.014493 
327 1 32.7745 -2.77981 10.0193 0.029246 -0.0140631 -0.00337175 
329 1 32.5756 -1.76222 11.133 0.0205802 -0.00995141 -0.00318276 
496 2 33.6313 2.84771 8.75083 0.00457337 0.0557035 -0.0730973 
346 1 31.1162 -0.47602 12.4811 -0.021318 0.014103 -0.0128502 
348 1 32.1373 0.110638 13.191 -0.0209088 0.00492043 0.0232381 
330 1 33.4315 -1.62122 12.3599 0.00820914 0.00528907 -0.0132325 
336 1 33.6611 -0.594246 13.3256 -0.0244959 0.00766532 -0.00536873 
347 1 34.2236 -0.7862 14.5878 -0.0208988 0.0136298 0.000482406 
359 2 33.7172 -0.597858 15.7218 0.0768873 0.0797085 0.0185259 
328 1 34.6086 -2.33595 12.1049 0.00353604 -0.000287325 -0.0181892 
514 1 30.7805 5.03511 34.4237 0.0179218 -0.016105 0.0208415 
360 2 31.5526 0.86732 13.8854 -0.00171129 -0.0474841 -0.0412692 
395 2 33.741 -7.78038 34.7468 -0.018904 0.0534099 0.0617579 
505 1 31.8773 2.79732 31.6515 -0.0103348 0.0357326 0.00113089 
524 1 31.8217 5.92592 35.0796 -0.0152334 0.00469624 -0.0301712 
106 2 35.7282 -0.181443 16.7652 0.113122 0.11996 -0.105043 
533 2 33.6753 0.89691 28.5813 0.0351373 0.0634542 -0.076129 
521 1 33.2621 1.14375 29.5862 0.00944345 -0.0266856 0.00518738 
508 1 31.6735 4.38423 33.4305 -0.0131301 0.0162869 -0.0165369 
530 2 31.3227 1.32018 28.7732 0.0812843 0.0906829 0.0325027 
529 2 29.4061 1.85586 29.6902 -0.0284707 -0.0484914 -0.0392339 
523 1 29.4111 4.60586 34.5329 0.00837727 -0.00768704 0.00899424 
520 1 28.9987 3.60652 33.757 -0.00972093 -0.000778477 0.00650169 
532 2 28.2121 2.99191 33.5767 0.0126549 -0.048294 0.023742 
531 2 28.0011 1.73147 32.0645 0.0333351 0.0422768 -0.0600401 
519 1 29.1932 1.8822 32.0031 -0.00344687 -0.0157251 0.00904152 
512 1 29.8955 2.9106 32.7475 0.0191285 0.00211748 0.0102114 
535 2 28.6343 4.9295 35.3885 -0.0432066 -0.00416916 0.0247079 
517 1 29.7452 1.81041 30.671 0.019149 0.0374171 -0.00233323 
358 2 30.1438 0.124664 12.5668 -0.0118072 0.070334 -0.101008 
344 1 35.4209 -1.52326 14.3616 -0.0117267 -0.00422047 0.0250808 
511 1 31.1687 1.83454 30.8295 -0.0272702 -0.00230078 -0.0258444 
528 1 34.7795 4.15983 35.556 0.0219885 -0.00130044 -0.011006 
518 1 31.7299 1.03828 29.6571 -0.0181729 0.00285397 0.010299 
516 1 33.4971 4.43017 35.0897 -0.00590167 -0.012113 0.0185581 
509 1 33.7396 3.12202 32.894 0.0104237 -0.00860979 0.00700809 
507 1 33.2756 2.60855 31.587 0.0211323 0.00929109 0.0129111 
513 1 34.2256 1.91389 30.6252 0.000353062 -0.0139544 0.0158441 
510 1 32.9821 3.98398 33.767 0.00100603 -0.0223043 0.00127594 
515 1 35.1755 3.13794 33.1547 -0.0125025 -0.00769393 0.0150248 
506 1 31.1934 3.50271 32.7697 -0.0155138 0.0077961 -0.0125966 
522 1 35.7958 2.00353 30.9181 0.010882 -0.00546295 0.0135667 
334 1 35.5966 -2.27177 13.2365 0.0085562 0.0206138 0.0141037 
526 1 35.4306 3.86647 34.3972 0.0360386 -0.0267479 -0.00220338 
392 2 35.4944 -6.38995 35.2142 -0.0484081 -0.00145858 -0.0140683 
536 2 31.5465 7.00628 35.6453 0.0069237 0.0468915 -0.0353245 
383 1 33.7703 -7.5883 35.829 -0.0189158 0.00896651 -0.0260151 
527 1 32.8522 5.50611 35.8471 -0.0111633 0.00762692 -0.0203511 
525 1 35.9724 2.42146 32.1878 -0.0113519 -0.00824771 -0.00899104 
396 2 31.0453 -9.37407 35.9186 0.0581522 -0.0302392 -0.00228764 
268 1 14.3878 14.0162 -9.45773 0.00611958 0.00459691 -0.00877921 
280 2 14.4795 15.0388 -9.56984 0.0189527 0.104356 -0.0146921 
260 1 13.813 12.9683 -10.4077 0.00955869 0.0176433 -0.0116442 
271 1 14.1412 13.7012 -8.14457 0.00752658 -0.0216876 0.016474 
283 2 13.9467 14.8254 -7.76513 0.0285597 -0.00393095 -0.0692318 
121 1 16.2563 33.7547 6.52633 -0.00925328 0.00345351 -0.00142689 
262 1 13.6807 12.5529 -7.64937 0.000279768 -0.00565909 0.00966531 
116 1 14.6466 35.5057 7.44594 0.0184428 -0.00122034 -0.00334899 
284 2 14.0976 12.138 -5.527 0.00281872 0.000278894 -0.0608788 
123 1 15.7218 34.542 7.616 -0.00893787 -0.00811187 -0.00237704 
110 1 13.8125 35.2672 6.24866 -0.0329336 -0.0283396 0.0173063 
232 1 34.1864 17.754 0.224142 0.00845549 0.0269353 0.0174036 
235 1 35.4762 18.0988 -0.20836 -0.0179943 -0.00424198 0.00855929 
245 2 32.2059 23.831 1.32166 0.0701399 -0.060358 -0.00675371 
222 1 34.5443 21.0011 -2.07792 -0.00192245 -0.00108342 -0.000278695 
220 1 33.9763 19.7361 -1.63711 -0.000958069 0.0235838 0.0107608 
226 1 35.1196 18.7941 -1.5191 -0.0272628 0.0137832 -0.00830501 
228 1 35.3712 20.9866 -3.35617 -0.0259705 0.033814 -0.0227623 
240 1 35.1515 22.0488 -4.42422 0.0271556 0.00140014 -0.00494578 
238 1 33.7898 22.6903 -4.36937 0.0097327 -0.0100986 -0.000372295 
221 1 33.413 21.913 -2.14788 0.0081292 0.00880504 -0.0295505 
227 1 33.2667 23.0747 -3.03379 0.0289278 -0.00968841 -0.0243463 
219 1 32.7286 22.0115 -0.845801 -0.0332902 -0.0141582 0.00194333 
234 1 32.7543 24.5424 -1.23892 0.000817323 0.0102698 -0.0252703 
117 1 13.6591 32.6497 3.32947 0.0131152 -0.0155134 -0.0172609 
133 2 17.2297 33.2443 6.84214 0.0461313 -0.032492 -0.044307 
225 1 32.3877 23.2952 -0.473413 0.0308371 0.0147212 0.00267332 
252 2 35.9649 22.4108 -5.02008 0.0271343 0.0529093 -0.0235234 
135 2 16.3951 35.2203 8.47722 -0.0198538 0.0593991 0.0394542 
237 1 32.4831 24.2341 -2.53542 -0.00769385 -0.0237054 0.0121931 
250 2 33.2575 22.9651 -5.39201 -0.0335359 -0.0625907 -0.0531528 
246 2 32.912 25.5292 -0.696394 0.000151215 0.0371115 -0.0161572 
249 2 32.6001 25.198 -2.94156 0.00474264 -0.0596769 -0.0521406 
243 2 32.2177 17.9209 2.09204 0.0934716 0.00478228 0.0107783 
244 2 34.2605 16.8326 0.742365 -0.0378883 -0.0283583 0.0370121 
231 1 32.1505 18.9086 1.51324 -0.00955323 0.00520818 0.00295603 
242 2 30.0024 22.8084 1.50677 0.066478 0.0187026 0.014981 
218 1 32.8298 19.6909 -0.808557 -0.00239644 0.0340827 0.00600487 
217 1 32.1671 20.7954 -0.235123 0.00607793 0.000138071 -0.026491 
224 1 32.9983 18.9095 0.381466 0.00507504 -0.0171821 -0.00590686 
230 1 30.986 21.9115 1.06976 -0.00310431 0.00996812 0.00480559 
241 2 30.3013 19.645 2.33409 0.0137497 0.0433327 -0.0300241 
229 1 30.8838 19.4851 1.37686 -0.00214391 0.00253948 0.00135183 
223 1 31.0691 20.5674 0.557419 -0.00219877 -0.0183199 0.0169363 
233 1 31.4357 23.2954 0.765708 0.0114542 0.0119063 0.0214417 
122 1 15.9828 32.2091 4.49086 0.0118731 0.00859652 -0.0182782 
137 2 14.9793 30.8196 3.11702 -0.00168072 0.0807047 -0.051419 
134 2 16.858 31.6022 4.79622 0.029197 -0.0505075 0.0193331 
111 1 13.6307 33.9155 4.10314 -0.0305995 0.0167274 0.00398653 
113 1 12.2492 34.4164 3.77657 0.0113003 -0.0124655 0.0244339 
138 2 12.6201 31.4478 1.76709 -0.0133367 0.105289 -0.00179144 
125 1 14.8532 31.7871 3.52903 0.000900363 -0.0265391 0.0175236 
126 1 12.5732 32.157 2.49255 -0.00453588 -0.0373112 -0.0237317 
115 1 15.3966 33.3216 5.40249 -0.00610548 -0.000968515 0.0303126 
109 1 14.314 34.0497 5.39833 0.00836937 0.0209524 0.0198912 
112 1 12.6707 35.8289 5.63397 -0.0110486 0.0159674 0.0127223 
267 1 13.5879 13.5253 -11.7243 0.00282066 0.0166542 0.0179681 
254 1 12.7649 12.1964 -10.0219 0.0302057 0.00597171 0.0199859 
279 2 14.3498 14.3652 -11.8153 0.0048701 0.0303417 0.108369 
265 1 12.3375 13.4456 35.5682 -0.0071748 0.000234583 0.0015698 
277 2 12.4308 13.2354 34.4611 -0.030974 -0.0164594 -0.0537547 
391 2 37.3178 -5.53334 -10.3885 -0.00362765 0.0143117 -0.0251832 
379 1 37.2525 -6.65891 -10.3767 0.00213195 0.000769322 -0.00848591 
376 1 38.2444 -7.52732 -9.83713 -0.028456 0.0100226 -0.0131287 
486 1 37.041 9.58249 9.24269 -0.0164253 -0.0285669 -0.0233073 
368 1 37.8172 -7.7234 -8.4848 0.00892174 0.0214004 0.00740073 
388 2 39.235 -8.09135 -10.255 0.0523612 0.035947 -0.033998 
498 2 37.2124 10.5319 9.94952 0.0455129 0.0885797 0.00681093 
375 1 38.4119 -8.12018 -7.17367 0.0110816 -0.0145622 0.0108632 
387 2 39.6139 -8.43121 -7.06192 -0.0943384 0.0717642 0.0122946 
373 1 37.7925 -8.71476 -5.97381 -0.0168235 0.0235755 -0.000270924 
367 1 36.5335 -9.16428 -6.35523 0.00779536 0.0379389 5.64965e-05 
210 2 41.9274 -7.47353 -2.90657 -0.0369778 -0.00485433 -0.013553 
385 2 38.1712 -8.9986 -4.94321 -0.0705047 0.00749437 0.0684153 
349 2 36.2333 -5.58353 7.98572 -0.0495938 0.00327865 -0.0137268 
209 2 43.774 -5.59557 -5.21585 -0.0897047 0.0101934 0.0330895 
198 1 42.8301 -6.9035 -2.54881 -0.0088916 0.0103378 -0.00531675 
201 1 42.3782 -6.94978 -1.20769 0.0155461 0.00674983 -0.0105432 
213 2 41.9031 -7.75154 -0.657758 0.106012 0.0572757 -0.0568117 
195 1 41.1735 -0.447843 -4.16802 0.00239312 0.0182921 -0.0154678 
188 1 41.1045 -0.897778 -2.73468 0.00118902 0.00402407 -0.00823323 
196 1 41.1776 0.167353 -1.63662 -0.00973074 0.0148512 -0.01235 
207 2 40.1298 -0.919994 -4.48875 -0.0013469 0.0731967 -0.0704945 
193 1 42.1058 -1.49084 -4.77963 0.0194223 0.0103813 0.00580836 
205 2 42.9234 -1.48322 -5.60787 0.00557201 -0.0378823 -0.098798 
199 1 41.258 0.26021 -0.190255 0.00136693 0.00602923 -0.0102121 
197 1 43.5217 -4.92597 -4.27707 0.011458 0.00382039 0.0125642 
182 1 41.5313 -2.1487 -1.95197 -0.0152531 0.00673948 0.00486466 
189 1 43.2017 -5.55248 -2.96322 -0.00879245 -0.00329964 0.0131794 
206 2 43.6338 -3.32757 -5.86741 -0.0550556 0.0445851 -0.0156112 
194 1 43.1935 -3.85075 -5.0922 -0.00460379 0.00181487 -0.0118762 
187 1 42.3933 -2.96447 -4.27295 -0.023707 0.00132955 -0.02971 
181 1 42.1534 -3.20221 -2.71767 0.014901 0.0229878 -0.000813856 
183 1 42.6249 -4.34198 -2.35011 0.000518683 -0.00771811 0.0169783 
185 1 41.9383 -4.40078 -0.897521 -0.015968 0.000419946 -0.0272408 
208 2 41.8596 0.884146 -2.33329 0.0133754 -0.0657708 -0.00851671 
191 1 42.2166 -5.75796 -0.240655 0.0172411 0.0027923 0.0147069 
202 1 42.4815 -6.0657 1.1 -0.018374 0.000930485 -0.0182457 
214 2 42.6288 -7.0503 1.64047 0.0401551 -0.0150108 0.0237271 
192 1 42.2988 -3.6036 1.34558 0.0244178 0.00535287 0.023319 
203 1 42.3422 -2.32408 2.02182 0.0261352 -0.0418549 0.00528435 
215 2 42.7551 -2.20604 2.95961 0.0824542 -0.0576751 -0.03435 
212 2 41.293 -0.497562 2.40676 -0.0107002 0.0671233 0.00607234 
190 1 41.3149 -1.11127 0.267046 -0.00220349 0.0216558 -0.0147061 
200 1 41.449 -1.34224 1.66443 0.00625414 0.0276647 -0.00534848 
204 1 42.5321 -4.82866 1.94059 0.00362566 -0.00672013 -0.02916 
216 2 43.017 -5.12553 2.95232 -0.064413 0.051147 0.0303409 
184 1 42.0101 -1.96542 -0.614376 -0.000418222 -0.011779 -0.0122824 
186 1 41.9166 -3.30101 -0.0962385 -0.0357772 0.0118748 0.00527628 
211 2 41.2553 1.29745 0.375317 -0.0163001 -0.0279607 0.0132404 
504 2 40.3561 5.28485 8.18085 -0.118993 -0.132103 0.0580896 
351 2 37.2465 -3.13806 8.70359 -0.00424737 -0.0421459 0.00304163 
332 1 36.2294 -2.99232 10.6836 -0.0082352 0.00749249 -0.00723786 
340 1 37.3276 -2.58881 11.4619 -0.0286939 0.00357201 -0.0219532 
339 1 36.5377 -3.68747 9.41331 0.0179975 -0.000285707 0.00428891 
474 1 37.1728 5.77881 7.23885 0.0340768 -0.020185 0.0471384 
352 2 38.4563 -2.62597 11.3418 -0.037707 -0.00184449 -0.0327189 
488 1 38.1145 3.08583 7.62161 -0.0190117 0.00310607 -0.0133447 
500 2 38.3453 1.92409 7.61437 -0.100286 -0.0257627 0.0136984 
503 2 39.6722 3.37357 6.20442 -0.0761344 -0.0029262 -0.00160151 
491 1 38.9105 3.86513 6.96179 0.00231299 0.00638254 0.0290281 
478 1 37.0349 3.50699 8.43344 0.0122319 0.0171499 -0.0122061 
499 2 36.3033 1.47799 8.66869 -0.0437541 0.0290879 0.0561993 
362 1 36.4542 -8.25413 -8.77455 0.0197069 0.0107408 -0.0257663 
472 1 36.5746 4.93991 8.2757 0.000779451 -0.0482452 0.0197098 
502 2 40.3841 8.12398 7.75567 0.0334004 -0.00223324 -0.0187854 
479 1 38.2401 8.00623 7.98796 -0.0096669 -0.0243122 0.0149733 
492 1 39.5149 5.92146 8.09485 -0.0280779 -0.00185301 0.000787346 
480 1 38.7007 5.30489 7.1051 0.00689048 -0.0188786 0.0199547 
490 1 39.4378 7.36243 7.72498 -0.0145583 0.00134055 -0.025026 
489 1 38.1808 9.51918 8.49905 0.0177955 -0.00920122 0.0237223 
501 2 39.0428 10.1689 8.84341 0.0751836 0.0122232 0.0663143 
473 1 37.026 7.13844 7.74987 0.0177946 -0.0178888 0.0015697 
487 1 36.1556 2.47237 8.88473 -0.00973146 -0.0215563 0.0170292 
386 2 36.0943 -9.70697 -4.17323 0.00450705 -0.0163956 -0.150026 
356 2 36.2658 -1.34638 15.0252 0.0540994 0.0382639 0.0304967 
107 2 37.2756 3.50101 18.6324 -0.0856247 0.00490324 -0.0592261 
105 2 36.1982 -3.03031 16.8418 0.0444835 0.0885219 -0.0214564 
343 1 37.1754 -2.55554 12.8714 -0.0275587 -0.00665889 0.0107695 
355 2 38.0078 -2.85861 13.6542 0.0693727 0.0995517 -0.00122802 
534 2 36.6279 1.42531 30.4933 0.00961455 -0.013551 -0.0212016 
94 1 36.6801 -0.0167974 17.3045 0.0098811 0.0249432 -0.00201959 
102 2 37.2574 -4.50976 18.3568 0.00710035 -0.0169842 -0.0347014 
93 1 37.0783 -2.52867 17.2961 0.00891693 0.0193224 -0.0177334 
78 1 38.5261 0.482703 19.1996 0.0201394 0.00875777 0.00587092 
85 1 40.7265 -1.94381 22.7996 -0.0051468 0.011267 -0.00344446 
74 1 40.1426 -0.322298 20.6525 0.0165097 0.0134422 -0.0107746 
81 1 38.6464 -3.27013 19.6069 -0.0315291 -0.0123145 -0.00333065 
75 1 38.5667 -1.88147 19.8077 0.00622081 0.00744919 0.0136628 
89 1 39.3577 -4.26181 20.5034 -0.0378386 0.0122026 -0.0120342 
86 1 39.386 -3.95176 21.9761 -0.000294784 -0.00519497 -0.0142175 
79 1 39.8526 -2.51227 21.8596 0.0161319 -0.00546359 -0.0231484 
73 1 39.7227 -1.71527 20.5865 0.00586687 0.0148529 -0.0086988 
77 1 38.3429 -0.801043 18.7781 0.0271035 -0.00395285 -0.0131666 
90 1 37.6197 -3.41557 18.3735 -0.00444355 -0.0190913 -0.00996126 
83 1 37.6511 -1.11948 17.6311 0.0131646 0.00899581 0.0179918 
101 2 40.2874 -4.7947 20.4568 -0.0685019 -0.0128455 -0.0311407 
97 2 40.9957 -2.47104 23.7569 0.0740464 0.0138977 -0.00419162 
87 1 41.7644 -1.13213 22.1175 -0.025029 -0.025175 -0.00264727 
99 2 42.7125 -0.748571 22.4993 -0.0213587 -0.0352759 -0.00174996 
98 2 39.7302 -4.4619 23.05 0.00285121 0.00265175 0.0503156 
104 2 38.5782 4.02907 20.9813 0.0335348 0.0761891 0.0987133 
92 1 38.4007 3.01911 20.6426 0.0045199 0.0214381 0.0121791 
95 1 37.8563 2.75796 19.1076 0.0114744 0.0275646 -0.00407036 
84 1 38.2206 1.64758 18.5873 -0.0123607 0.00614596 0.0161252 
76 1 39.0405 0.529079 20.4599 -0.00626073 0.000770759 -0.0149653 
103 2 41.0237 3.29118 20.9437 0.0237766 0.0237141 0.00990692 
82 1 39.2688 1.96972 20.9149 0.00777214 0.0347714 -0.0183093 
80 1 41.5603 0.159139 21.4625 -0.0108423 -0.0270523 -0.00882292 
91 1 40.6405 2.34869 21.3368 0.0144067 0.0105418 0.02956 
100 2 42.7848 1.75811 22.0798 -0.0648544 -0.0227142 -0.0466817 
88 1 41.6899 1.53447 21.815 0.0120171 -0.00308073 -0.0013345 
537 2 36.8887 2.29269 32.6045 -0.0582271 -0.133018 -0.0498921 
538 2 36.5894 3.90361 34.2971 0.0375867 -0.0216886 -0.00406816 
96 1 37.1117 1.17676 17.3718 0.0212262 -0.00760849 -0.00609558 
108 2 36.627 1.66668 16.6858 0.0614562 0.0318204 0.0488708 
248 2 37.4171 18.3831 -2.06464 -0.0906035 -0.0425696 0.00497865 
71 2 52.225 31.1595 6.13476 -0.02611 -0.0403976 -0.0512536 
251 2 37.4333 20.1704 -3.81515 0.0290654 -0.0614703 0.0866519 
236 1 36.4215 19.0201 -2.19015 0.0172189 0.00266129 0.013447 
239 1 36.5521 19.9285 -3.18129 -0.0200944 0.00415658 -0.00573052 
247 2 36.3957 17.4593 -0.642499 0.0720641 -0.0263604 0.110342 
422 2 58.5815 27.1273 35.8366 0.0607451 0.0478965 0.0218022 
429 2 59.5533 31.3245 31.2027 0.0401506 -0.0343661 -0.0928019 
424 2 58.2622 21.9824 31.2534 -0.0232618 0.0448926 -0.0196638 
432 2 59.5173 28.263 27.2094 -0.00478875 0.0791769 -0.0957528 
411 1 58.4114 23.7224 33.5017 -0.0124436 0.00702825 0.0107803 
423 2 57.4002 24.0077 33.9625 -0.0284862 -0.0126565 0.0391153 
404 1 59.0518 23.9197 32.1342 -0.000672012 -0.00411424 0.0584612 
412 1 58.8095 23.0387 31.1612 -0.0120549 -0.00833788 -0.00244848 
409 1 59.3603 24.3364 34.4087 0.0230587 -0.00620737 0.013792 
421 2 59.7141 23.6805 35.2007 0.00583372 0.0826836 -0.027997 
397 1 59.68 26.1837 32.7212 0.00753285 -0.00229188 -0.0078712 
398 1 59.7841 25.2132 31.7933 -0.0136523 -0.0167328 0.011133 
407 1 59.604 29.1005 30.462 0.0111735 -0.00978071 -0.00946032 
410 1 58.7839 27.0132 34.7643 -0.00354167 0.00929325 0.0162274 
413 1 58.7818 28.4937 34.3724 -0.0128376 0.0195913 -0.011241 
405 1 58.9764 28.7092 33.0329 -0.0239189 0.0085687 -0.00535858 
414 1 58.8346 30.0787 32.6823 -0.000490967 -0.0012244 0.018709 
403 1 59.4435 25.8354 34.1449 -0.00542603 -0.00697497 -0.015259 
399 1 59.7022 27.5386 32.2348 -0.000924284 -0.00869617 0.000760612 
401 1 59.8714 27.7836 30.8104 0.00617309 0.0192661 0.00935478 
425 2 58.6409 29.268 35.0846 -0.0225539 -0.00180742 0.0498643 
417 1 59.5993 30.1853 31.6024 0.0226851 0.0205738 0.029072 
426 2 58.8288 31.2417 33.2852 -0.0494504 0.0465961 0.0973058 
420 1 60.002 28.1274 28.1073 0.0148241 -0.0143904 -1.99223e-05 
415 1 58.6245 23.5898 29.804 -0.0429684 -0.00119971 0.0208247 
427 2 58.3349 22.8317 28.8735 -0.00336666 -0.0952757 0.00625922 
406 1 59.3881 24.4757 29.5698 -0.014696 -0.0177389 0.00624001 
402 1 59.9244 26.6395 30.0055 0.0103785 0.00711866 -0.0274493 
400 1 59.6842 25.3843 30.3579 -0.0273521 -0.0190754 -0.00346318 
179 2 53.2661 12.2162 18.3475 -0.0177037 0.0498298 0.0582752 
459 2 66.0986 11.6698 -9.15944 -0.0420034 -0.0127576 -0.00827335 
447 1 65.9256 11.2088 -10.3121 0.000655692 0.0141442 -0.0279289 
445 1 66.3716 9.8884 -10.7757 -0.00170705 -0.0188885 0.0123711 
440 1 65.2256 11.7661 -11.4997 -0.00662755 0.00441654 -0.0125825 
457 2 66.6005 9.04013 -9.93739 0.133395 -2.85299e-05 -0.036302 