ITEM: TIMESTEP
230000
ITEM: NUMBER OF ATOMS
576
ITEM: BOX BOUNDS pp pp pp
-1.2000000000000000e+01 8.4000000000000000e+01
-1.2000000000000000e+01 3.6000000000000000e+01
-1.2000000000000000e+01 3.6000000000000000e+01
ITEM: ATOMS id type x y z vx vy vz 
253 1 -0.133683 0.201678 -5.77797 0.0129424 0.0188447 0.0162465 
278 2 1.19066 -2.04285 -7.86773 0.0577107 -0.0389477 -0.0492805 
259 1 0.126128 -1.30627 -5.94799 0.00684695 8.43228e-05 -0.010697 
266 1 0.685983 -1.17052 -7.39017 -0.00952162 0.00224072 0.0138865 
281 2 2.47975 -0.404924 -8.51819 0.0195123 0.0180592 -0.0109972 
269 1 1.66218 -0.133598 -7.87406 0.00434117 -0.018472 -0.000737279 
258 1 -1.33514 2.56952 -5.65376 0.0113972 0.00336774 -0.00429095 
254 1 -1.32305 0.360912 -4.948 -0.0172384 -0.0197918 0.00152662 
256 1 -2.05395 1.67795 -4.95714 -0.0104575 0.00742043 0.0402553 
264 1 -1.97325 3.86219 -6.18935 0.00176211 -0.00049188 0.0104064 
262 1 -3.57113 1.59396 -4.87785 0.00397513 0.00941766 -0.00558078 
276 1 -1.23549 4.61863 -6.86057 0.0100745 -0.00533508 0.00156109 
272 1 -3.86582 2.56463 -6.11735 0.0270812 -0.00120568 0.0308019 
275 1 -3.44144 4.08071 -5.94744 0.0189682 -0.00753967 -0.00166811 
287 2 -3.92428 4.92423 -5.6463 -0.0129848 -0.0300351 -0.00632186 
274 1 0.204981 4.47753 -7.24751 -0.0180115 0.0155644 -0.00434421 
263 1 0.63589 3.09544 -7.25683 -0.021811 0.017087 -0.00345634 
270 1 3.08457 2.08602 -7.49065 0.00374772 -0.0131332 0.018451 
261 1 2.05952 0.829416 -7.03529 -0.00763633 -0.00374125 0.00856881 
255 1 0.759976 1.20021 -6.3614 -0.0175555 -0.00411391 -0.00434273 
273 1 2.01438 3.0585 -7.93639 0.00207775 -0.00196023 -0.00168329 
257 1 0.113996 2.38537 -6.05869 -0.0176974 0.0162124 0.0132986 
285 2 1.85753 3.84965 -8.71942 -0.0510354 -0.0978238 -0.0871282 
288 2 -1.44602 5.59137 -7.2888 -0.0359294 0.030897 0.0599995 
286 2 0.580559 5.11249 -8.12175 -0.0483547 -0.0815471 -0.0102069 
260 1 -2.46669 -0.62489 -4.89257 -0.0228944 -0.0155454 0.00322941 
268 1 -3.89321 -0.705324 -4.36071 -0.002952 0.0160296 0.0215025 
267 1 -2.1004 -1.98475 -5.07359 -0.016139 -0.0174225 -0.00960038 
280 2 -4.45506 -1.34243 -3.77609 -0.0129989 -0.035617 0.0273302 
265 1 -0.648285 -2.40375 -5.30464 0.0120405 -0.0195317 0.00559812 
279 2 -2.73377 -2.70017 -4.51687 0.0527276 0.00571417 0.01283 
277 2 -0.219302 -3.32453 -4.9724 0.0418403 -0.0817672 -0.0056789 
271 1 -4.4507 0.505094 -4.60356 0.00343277 -0.00318578 0.00604498 
283 2 -5.51638 0.727165 -4.9137 -0.0240487 0.132293 0.068598 
284 2 -4.39734 2.09175 -7.12021 0.109798 -0.0265968 0.0591787 
136 2 -11.5255 -3.20389 25.6615 -0.0548542 -0.0331973 0.0643094 
139 2 -11.92 -5.4663 23.7848 -0.0650708 0.047662 -0.0885809 
179 2 10.1391 25.1123 2.50286 -0.000448848 0.00782217 0.0736307 
63 2 3.26749 25.6622 23.8073 0.00608387 -0.0515542 0.0215435 
208 2 8.11494 28.2971 23.736 0.0141994 0.0720164 -0.0570966 
61 2 3.39733 23.0028 23.9687 -0.00608027 0.0465316 -0.0368966 
54 1 2.52275 21.5565 30.247 -0.0165887 -0.00292065 -0.0293878 
65 2 3.11637 20.2456 28.1707 -0.00348137 -0.0432489 0.00535302 
45 1 2.26907 22.0256 28.9351 0.0172163 0.00786955 0.0408014 
53 1 3.06349 21.1559 27.7243 -0.0033128 0.0143915 0.0142215 
50 1 3.87595 21.8656 26.7385 0.0107639 -0.039607 0.0158408 
62 2 4.61272 21.2134 26.4133 0.0145425 -0.0399727 -0.0413033 
39 1 1.98916 23.3344 28.6615 0.00665549 0.0106531 0.00756841 
43 1 3.17586 23.1369 26.4268 -0.0363234 0.00307452 -0.0129558 
212 2 11.036 25.0033 25.8504 -0.0158868 0.00263374 -0.0893954 
215 2 10.0063 24.1422 28.0948 0.0813379 -0.00351586 0.0347201 
41 1 1.29941 24.0858 29.7702 -0.0134158 -0.00346352 0.0081477 
37 1 2.51311 24.1513 27.4517 0.0217305 0.00680605 -0.00909422 
49 1 3.27718 23.6185 24.9315 -0.0190296 -0.00870123 0.000916555 
38 1 1.66754 25.1574 27.076 -0.0132304 -0.0131464 -0.02428 
51 1 2.88914 24.9379 24.4834 0.00285336 0.0231831 0.00929326 
44 1 2.27637 25.661 25.6516 -0.0253207 -0.00244163 0.00871814 
40 1 1.18462 26.1698 28.1294 -0.00867874 0.00938383 0.00329438 
52 1 1.70289 26.9326 25.3973 0.0164112 -0.00365933 -0.00707231 
46 1 1.22734 27.4103 27.6274 0.00385938 -0.0200039 -0.0218224 
64 2 0.78674 27.0586 24.7574 0.00390342 0.0453427 -0.0589196 
55 1 1.73136 28.0391 26.2932 -0.0317806 -0.0149618 -0.00901926 
42 1 1.16847 25.4941 29.4358 0.00604691 -0.00657969 -0.0140304 
67 2 2.13186 28.8583 26.1584 0.0123459 -0.0602528 0.0573049 
56 1 0.422181 28.6006 28.2704 -0.024869 -0.0208681 -0.0341169 
211 2 10.2244 25.8332 23.7203 0.0387795 0.00846359 -0.0245944 
184 1 9.5944 27.579 26.5707 -0.0214051 -0.0311791 -0.0255121 
186 1 9.77052 27.3936 27.9933 -0.00398758 0.0065205 0.0367529 
190 1 9.48286 26.4865 25.6929 0.00629196 -0.00810022 0.01383 
200 1 10.1255 25.2303 26.2855 -0.00360408 0.0211205 -0.0234872 
192 1 9.77222 26.2601 28.8127 0.00534015 0.0236924 -0.00747617 
203 1 9.498 25.1003 27.5792 -0.00402467 -0.00893219 -0.005774 
199 1 9.67075 26.6206 24.2987 0.00382005 0.0179524 -0.00178663 
196 1 9.11537 27.8552 23.6087 0.00543269 0.00315176 -0.0320022 
185 1 10.3971 28.6041 28.8516 -0.0185166 0.022061 0.0023802 
182 1 9.78939 28.8769 25.9598 -0.0424655 -0.0130843 -0.0135924 
183 1 10.285 29.8801 28.2301 0.00701822 0.00344862 0.014014 
181 1 9.95624 29.9999 26.7303 -0.0111522 -0.00642386 -0.00911662 
188 1 9.54792 28.9639 24.501 -0.00615346 0.00567897 0.0184624 
195 1 9.67912 30.4691 24.0912 0.00895603 0.00676263 -0.0140209 
207 2 9.30156 29.9063 22.8871 -0.0647091 0.0716552 0.0842175 
189 1 11.2294 30.8242 28.9299 0.00521072 0.00146132 -0.0194182 
193 1 10.3375 31.4989 24.5869 -0.00419919 -0.00592235 0.00466663 
205 2 10.605 32.3231 23.9254 0.01281 0.073407 0.0453318 
187 1 10.5339 31.1967 26.0624 -0.00830024 -0.0111525 -0.00181085 
66 2 3.33126 20.8267 30.6083 -0.0754558 0.0704725 -0.0801126 
69 2 0.968809 20.8422 31.0691 -0.0777282 -0.0539286 -0.0185014 
57 1 1.29626 21.9198 31.0076 -0.0133765 -0.0146708 0.00765743 
70 2 1.01302 24.0494 33.0641 0.00588869 0.040107 -0.044973 
47 1 1.30421 23.4719 31.1199 -0.0225415 -0.00517605 0.0195697 
58 1 1.641 24.3222 32.2346 -0.00151411 -0.00946882 0.0138007 
72 2 0.0497317 27.0525 30.8728 0.0537543 0.0185881 -0.0585319 
60 1 1.62228 25.7561 31.7616 -0.00574768 0.00562741 0.0122511 
48 1 0.925578 26.354 30.6384 -0.017431 0.0031151 -0.00160764 
59 1 -0.285607 29.484 28.9254 -0.00271083 -0.0230933 0.00274697 
201 1 11.7676 29.202 30.9326 -0.00765878 0.0104739 0.0163086 
204 1 9.75152 26.4738 30.2114 0.0141005 0.00588714 0.00609573 
202 1 10.1623 27.1347 31.2174 0.00806608 0.00863945 -0.0113749 
214 2 10.5554 26.7435 32.2436 -0.0266235 0.093579 0.0531303 
191 1 10.46 28.5053 30.4465 0.0095354 -0.00377786 -0.0288518 
105 2 1.8758 22.6179 33.5993 -0.0206926 0.0439478 -0.0481289 
68 2 -0.703828 30.1298 29.653 0.0292007 0.0021585 -0.0504064 
206 2 11.7275 33.1602 26.7424 -0.0311999 0.0441026 -0.0775938 
197 1 11.7072 32.096 28.3041 -0.0232159 0.0220014 0.018274 
194 1 11.2961 32.0905 26.98 -0.0181875 -0.00405431 0.0201366 
209 2 12.1369 32.806 28.9649 0.0851444 0.0438168 -0.00100073 
576 2 16.8932 5.40176 3.69504 0.0424922 -0.0510234 0.0499132 
559 1 22.5137 4.27366 0.893251 -0.0186679 0.0119448 -0.0110701 
575 2 18.1397 5.73393 0.853468 -0.0701544 -0.00527539 0.0245089 
572 2 20.4276 4.84363 -0.403014 0.088742 0.0668662 0.088291 
563 1 19.1328 5.66828 1.30393 -0.00251869 0.0145747 0.00658823 
564 1 18.029 5.6523 3.65852 -0.00514343 0.0229117 -0.0252997 
552 1 19.18 5.62945 2.74419 0.00231612 0.00509936 0.00998666 
542 1 23.1171 5.87653 3.29823 -0.00675376 0.0146154 -0.011515 
544 1 21.7489 5.90906 2.62934 -0.00776186 -0.00895646 -0.0175809 
550 1 21.4743 5.19564 1.3743 0.000728393 0.0111623 -0.00354382 
546 1 20.5472 5.81211 3.40961 0.0201387 0.035919 -0.0184018 
560 1 20.2989 5.16807 0.637088 -0.0115057 0.011023 0.0286859 
571 2 22.2856 3.94712 -0.211063 0.0548064 -0.0187258 -0.0251497 
548 1 24.0309 6.00958 2.11204 -0.00304722 0.0367984 0.0193407 
555 1 24.9611 7.16767 1.94235 -0.0243982 0.0191437 -0.0281528 
556 1 23.8094 4.51592 1.5041 0.0111194 -0.00157787 0.00456631 
568 2 24.8177 4.09461 1.3177 0.0208821 0.0196119 0.0285524 
567 2 24.8222 7.73701 1.01136 0.0811899 0.0535145 0.0858857 
574 2 17.4903 7.5994 4.96388 -0.0234439 -0.0343266 0.0172528 
562 1 18.288 6.77353 4.56518 -0.0110972 0.00893323 0.0152938 
545 1 20.5196 6.63125 4.7603 0.000685971 0.0147165 0.0309202 
551 1 19.3334 7.44216 5.11459 -0.00570632 -0.0125342 0.0151755 
561 1 19.9447 8.7424 5.64677 0.000319679 0.0180156 0.00667132 
543 1 21.8761 7.21281 4.95171 0.00345317 -0.00408229 -0.016745 
541 1 23.1363 6.59767 4.46183 -0.00258564 0.00929074 0.014195 
558 1 21.0262 8.79271 6.68196 0.0010363 -0.000783368 0.000805392 
549 1 22.2347 8.22973 6.13277 0.00860095 -0.0044644 -0.0247855 
569 2 23.602 9.61265 6.95714 0.0340355 0.11113 0.0607831 
557 1 23.4437 8.61702 6.313 0.0264415 -0.0508459 0.00279115 
554 1 24.6674 8.24547 5.58362 0.0119238 -0.0334991 -0.0104005 
547 1 24.2755 7.5442 4.38823 -0.0121581 0.000603328 0.00893285 
566 2 25.6368 8.63759 5.52251 0.0429544 -0.0173094 0.092975 
553 1 25.2734 7.26704 3.41859 0.00463923 0.00554368 -0.018563 
565 2 26.1723 6.87799 4.05963 0.129389 0.0404601 0.0594692 
468 2 22.8679 -1.16995 11.8732 0.0243023 0.00322056 0.020283 
464 2 20.4573 2.42686 10.3921 0.0538915 0.0310146 -0.0891937 
455 1 21.4467 0.665513 11.2418 -0.00894517 -0.00350036 -0.00476558 
467 2 22.0422 -0.0374994 10.6952 -0.0178715 0.0340858 0.0734006 
452 1 20.6822 1.93586 11.3254 0.0294216 -0.00580794 -0.0193671 
570 2 20.8901 9.63948 7.39509 0.02662 -0.00330632 0.0849085 
573 2 18.9587 9.28889 5.61405 0.0873126 -0.0332744 0.0122098 
463 2 19.6095 5.47878 11.7641 0.00153109 0.0316016 -0.0310547 
465 2 23.3074 -2.18543 16.3642 0.0790731 -0.0338503 0.0335691 
450 1 22.6805 -0.353811 17.3466 0.0188111 -0.00997362 0.0286164 
453 1 23.0182 -1.16658 16.1745 0.00399512 -0.00214683 -0.00985572 
443 1 22.4223 -0.503065 15.0134 0.0366365 -0.00114976 0.0375505 
454 1 23.1377 -1.14936 13.9079 0.0506632 -0.0156127 -0.0166451 
466 2 23.2762 -2.20203 13.634 0.00046029 0.0173137 0.0960171 
456 1 22.8855 -0.47502 12.6176 0.00407253 0.00941228 0.0111076 
449 1 22.4329 1.91134 18.3303 0.0133404 0.0351957 0.00557678 
435 1 21.7094 1.61497 16.1721 0.0177231 0.00249736 0.0109708 
441 1 22.3433 1.03029 17.3031 0.000453586 0.00430706 0.0198958 
437 1 21.9417 0.709477 15.0871 0.00926625 -0.00409858 0.012533 
439 1 21.3986 3.70307 16.9835 -0.0113046 0.00240217 0.0238417 
433 1 21.0766 2.81998 15.9107 -0.0101068 -0.0203634 -0.0125328 
445 1 20.9923 5.21357 16.7265 0.0093475 0.0140231 -0.0053455 
447 1 19.894 5.35676 15.8857 0.00167628 0.0266602 -0.010023 
434 1 20.9168 3.51419 14.7338 -0.00219892 -0.0276395 0.00401972 
436 1 21.0001 2.5972 13.6771 -0.00405937 -0.00481388 -0.0214852 
440 1 20.0404 4.63189 14.7177 0.0115588 -0.00495524 -0.00353216 
458 2 22.0646 4.14014 18.7376 0.0356359 0.0438628 -0.023124 
438 1 21.8487 1.34528 13.8302 0.00279701 0.000574911 -0.0226808 
448 1 20.0752 5.18466 13.6479 -0.0130247 0.0130314 0.00993283 
442 1 20.3727 3.02727 12.4643 -0.0100077 0.0202624 0.00344338 
444 1 22.1979 0.726169 12.4784 -0.0100523 -0.0325299 0.0208589 
459 2 18.9361 5.94293 16.0983 -0.0140738 0.079555 0.0771614 
460 2 19.5954 6.23525 13.7891 -0.0304013 0.0614481 -0.0162724 
462 2 22.9496 -0.684577 18.467 0.0270907 -0.00821814 -0.0332825 
446 1 22.0162 3.19361 18.0484 0.0186738 -0.0147019 -0.0144485 
457 2 21.4279 6.08488 17.3972 -0.0641206 0.0191421 -0.0853459 
461 2 22.4584 1.36593 19.2822 0.0701166 -0.00532482 -0.112599 
451 1 19.9549 4.6131 12.3913 -0.000424271 -0.0202223 0.0297536 
432 2 31.5292 19.4207 -12.1376 -0.0129529 0.00331629 -0.107339 
540 2 31.3935 19.2111 19.6133 -0.0426952 -0.0332736 0.0607632 
537 2 31.5852 18.1377 19.6446 -0.0337399 0.131438 -0.0668764 
216 2 19.184 34.5022 20.3866 -0.0619148 0.00461038 -0.0222591 
405 1 34.0108 18.0755 29.8958 -0.0199958 0.0174365 0.00309549 
427 2 32.2804 24.6495 32.5702 -0.0012673 -0.00302799 0.0599184 
399 1 33.4293 19.2329 30.5635 -0.0160388 0.00779952 0.00180154 
404 1 33.8092 22.5214 30.1767 0.0286398 0.0172149 0.0227316 
397 1 33.7811 20.331 29.9991 -0.00385862 -0.0132137 -0.0245693 
403 1 34.4099 20.2272 28.575 -0.00351181 0.0105936 -0.0118419 
411 1 34.9469 22.5963 29.289 0.000590485 0.00790325 0.0298478 
409 1 35.0568 21.4543 28.33 -0.020516 -0.00577068 -0.00912335 
423 2 35.6375 23.5069 29.5869 0.0323013 -0.0833988 0.087982 
425 2 35.5225 17.0923 28.0999 -0.0136381 -0.041721 0.0759246 
410 1 33.9983 18.8723 27.8266 0.015787 -0.0116186 0.0325729 
413 1 34.6467 17.8019 28.4658 0.00109944 -0.0416297 0.0257534 
424 2 33.5691 24.4608 29.8728 0.011972 0.00365659 -0.0362159 
210 2 13.1385 30.5114 29.7204 0.0311896 -0.106257 0.0186574 
426 2 35.3672 16.2482 30.5057 -0.104775 -0.0479827 -0.0351179 
422 2 33.4449 19.2549 27.0596 -0.114094 0.0816018 0.136393 
412 1 33.508 23.8456 30.7706 0.0111076 0.00181915 -0.00413033 
414 1 34.5231 17.0631 30.852 -0.0227506 -0.0197349 0.0164931 
429 2 34.0066 16.1911 32.7373 0.0291092 -0.0112244 0.122077 
417 1 33.8459 17.1062 32.0835 -0.0193993 0.000535544 -0.0157303 
407 1 33.1774 18.2028 32.73 0.0218204 0.0162247 0.0213866 
430 2 32.716 16.992 34.363 -0.0509125 0.0126252 0.0651269 
418 1 32.5456 18.0735 34.0873 0.0034432 0.0306141 -0.00892931 
398 1 33.0337 21.3679 30.6315 0.000337957 -0.0161257 0.00186953 
406 1 32.4415 22.6729 32.4928 0.00566073 0.0144087 0.0406709 
420 1 32.2577 19.2374 34.9076 -0.00304929 0.0151611 -0.0137781 
213 2 12.4049 28.5838 31.6145 0.124855 0.00111649 -0.0732038 
401 1 33.3108 19.3103 31.9253 -0.0100402 0.00193289 0.0137847 
402 1 32.6393 20.3222 32.6616 0.00773079 -0.0204047 0.0393328 
415 1 32.934 23.9758 31.8834 -0.0195934 0.00920483 -0.000719323 
400 1 32.5279 21.434 31.9048 -0.00656995 -0.0156228 -0.0285894 
431 2 30.5219 22.0186 35.2659 0.0195745 0.0372869 0.0152443 
428 2 31.8432 23.6204 34.3444 0.0340685 0.0686559 -0.0221722 
419 1 31.1624 21.665 34.2274 0.00104503 0.00313782 -0.0209948 
408 1 32.0889 20.4432 34.0576 0.00663032 -0.0120374 0.0224267 
416 1 31.4388 22.9672 33.5683 0.0211976 -0.0076187 -0.00963766 
282 2 21.2424 17.3857 16.5074 0.0257589 0.0147794 0.095514 
421 2 35.5415 21.8888 27.4985 -0.0318949 -0.0417215 0.0229857 
198 1 12.122 30.2894 30.0586 0.0123108 -0.00710686 -0.0157151 
395 2 55.2639 -7.39419 -8.23704 0.0286428 -0.0215352 -0.0896025 
396 2 54.942 -9.07237 -9.84322 0.0299632 -0.00196569 -0.0400098 
382 1 56.622 -10.451 -10.0321 0.00503997 -0.00523149 -0.0154667 
371 1 58.1529 -10.5906 -10.1237 0.0117045 -0.0115026 -0.00621994 
381 1 59.1479 -11.5601 -10.1766 -0.0161957 -0.00785043 -0.0108483 
365 1 58.5773 -9.136 -10.3577 0.0194997 0.0160225 -0.00343275 
250 2 41.6131 -0.379567 -10.7549 -0.0557873 0.0695738 -0.0535182 
372 1 56.9005 -8.08208 -9.41256 0.00553212 -0.00512492 0.00190837 
366 1 58.1745 -7.86451 -9.94811 -0.0113055 -0.018283 -0.011585 
394 2 56.4942 -11.6414 -10.0592 0.119439 0.0113152 -0.0530171 
384 1 56.0321 -9.30788 -9.84354 0.0091731 0.00511627 0.00856855 
383 1 56.1733 -6.96373 -8.83731 0.035392 -0.01242 -0.0184037 
500 2 56.7778 -0.860731 -11.3251 -0.00291112 -0.0268928 -0.0852622 
71 2 56.9782 -11.0804 -1.70032 0.0501039 0.0322638 -0.0591738 
364 1 58.748 -6.80057 -10.2178 0.0183837 0.0126876 -0.0127406 
34 2 51.44 9.30069 -8.86383 -0.0191311 -0.0612457 0.0493293 
252 2 39.2151 -0.593238 -9.73106 -0.00361337 -0.0266736 0.0385521 
22 1 51.2974 8.37402 -9.48632 0.00401324 -0.0320199 -0.00168581 
36 2 53.1047 8.86687 -11.308 0.0750346 0.0063254 -0.0757334 
392 2 55.4377 -5.30821 -8.70155 0.0668668 0.00190738 -0.00685452 
24 1 52.2366 8.47573 -10.5668 -0.00119479 -0.0104136 0.0232426 
370 1 57.9277 -5.62588 -9.6148 0.00585203 0.003417 -0.0428219 
12 1 52.3422 7.16437 -11.2833 0.00698115 -0.00816862 -0.0144775 
391 2 57.7315 -3.41039 -9.30391 -0.019526 0.0401487 -0.130508 
243 2 41.2103 8.37335 -9.51765 -0.0750261 -0.00246393 -0.0326374 
380 1 56.4227 -5.55344 -9.07554 0.0213972 -0.00388331 0.00107027 
379 1 58.464 -4.25519 -9.70524 -0.00133844 0.00164854 0.00181974 
376 1 59.842 -4.21224 -9.90416 -0.00654242 0.00461124 0.00254165 
240 1 39.6286 0.339419 -10.1627 0.00551577 -0.00616584 0.00270562 
251 2 38.4895 0.852408 -7.12439 0.0441039 -0.1367 0.10471 
238 1 40.8484 0.34374 -10.8877 -0.00674623 0.0127812 0.0144866 
248 2 38.0203 3.06823 -6.426 -0.0707033 0.0583767 -0.0983492 
239 1 38.7872 1.70078 -7.97131 -0.00766596 0.00478699 0.00400465 
247 2 39.7073 5.19348 -6.31002 0.0052544 0.0162306 0.0705884 
236 1 38.5585 3.0307 -7.47918 -0.00990155 -0.0191953 0.00367395 
226 1 39.3455 3.99255 -7.99245 -0.00109786 0.0150937 0.00306435 
232 1 39.859 6.60532 -8.05175 0.0293671 -0.00852246 0.00565875 
235 1 39.6979 5.31028 -7.41073 0.00937972 0.0129508 -0.0272971 
228 1 39.3818 1.62051 -9.292 0.0160862 0.0088444 0.00649204 
220 1 40.0174 3.9608 -9.32749 -0.00223915 0.0179004 -0.00366821 
224 1 39.9186 6.42244 -9.50546 0.00155201 0.0108154 -0.00537981 
218 1 40.2425 5.10378 -9.84356 0.0116376 0.0186953 0.0152917 
217 1 40.8271 5.15296 -11.2758 -0.0144552 -0.0102829 -0.0103857 
219 1 41.1274 3.85597 -11.9163 -0.012002 0.0123956 -0.00273527 
222 1 39.6847 2.8852 -9.94251 0.00520111 -0.00241781 0.000432888 
221 1 40.4019 2.85349 -11.2338 -0.00503879 0.00118389 0.0162796 
227 1 41.0915 1.63645 -11.5044 -0.00723599 0.00688623 -0.00394067 
14 1 49.2751 2.09484 -9.07837 0.0200725 0.00363201 -0.0055678 
26 2 48.9195 1.07584 -8.83269 0.0670747 -0.0614609 -0.0764353 
17 1 49.78 2.99118 -7.94897 0.0301257 -0.0192976 0.0022862 
29 2 49.5074 3.17436 -6.92925 0.00553752 0.0341393 0.0769396 
30 2 49.4828 5.68588 -6.37704 0.0157258 -0.0191186 -0.0555883 
18 1 49.9624 5.564 -7.39105 -0.0105141 0.0119435 -0.00429287 
9 1 49.6633 4.44787 -8.31081 0.0201074 -0.00648592 -0.000274223 
7 1 49.8965 2.1571 -10.5629 0.0180173 0.0102918 0.0197492 
3 1 50.4273 4.51867 -9.43414 0.00342646 -0.0028549 0.0188316 
1 1 50.5384 3.39754 -10.3486 -0.00139431 -0.0117926 0.0187429 
5 1 51.0757 5.76932 -9.96535 0.0106914 0.0187306 -0.00271511 
6 1 51.7652 5.79021 -10.962 0.0132111 0.0215697 -0.0067797 
2 1 51.4635 3.49169 -11.4395 0.0379538 0.0151347 -0.0295555 
4 1 52.1096 4.63406 -11.8102 -0.00483268 -0.0135929 -0.0177183 
13 1 49.5478 1.30974 -11.8112 -0.0163924 0.0212095 -0.00190435 
223 1 40.4872 6.23935 -12.0273 -0.0122111 -7.25074e-05 -0.0187478 
231 1 40.6027 7.62687 -10.0652 0.00862988 0.0259115 0.01079 
241 2 41.7286 8.19643 -12.0742 0.0167273 -0.0430155 -0.109561 
21 1 50.5003 6.67525 -7.95338 -0.00346174 -0.0231288 -0.00871919 
11 1 51.1489 6.7829 -9.09234 0.0128578 0.00132299 0.00597321 
363 1 59.9133 -9.02429 -9.92038 0.00249483 -0.00376325 0.0207254 
33 2 50.4046 7.72129 -7.28361 0.0376604 0.0193433 0.0204993 
496 2 58.1376 5.81728 -11.2214 0.051706 0.046429 0.0236968 
484 1 57.9263 4.76467 -11.2862 0.00458068 -0.00173536 -0.00910786 
244 2 40.0484 7.38706 -7.43491 0.0389383 -0.0897124 -0.0453105 
476 1 58.973 4.02057 -10.5964 0.0236687 -0.00468314 -0.010218 
470 1 59.5312 2.68085 -10.8353 0.00637468 0.00669893 0.0254495 
483 1 59.1951 4.83056 -9.3772 -0.0100221 0.0171295 -0.0263726 
229 1 40.963 7.49829 -11.4508 -0.0161413 -0.0154588 -0.0123831 
390 2 59.6163 -11.9281 -8.14738 0.0490315 -0.0253179 0.104907 
10 1 53.2973 4.58584 35.2594 -0.00758735 -0.0121544 -0.0133541 
480 1 59.5588 -0.116952 34.736 0.00948116 -0.00713918 -0.0110559 
233 1 41.9592 5.04865 34.3769 0.00674146 0.00434852 0.00620274 
237 1 42.2307 1.57575 35.4202 -0.02718 0.0306197 0.0271429 
249 2 42.3732 0.518737 35.2574 0.063707 0.178527 -0.0114782 
234 1 42.6568 2.5466 34.5857 -0.0182854 -0.0205325 -0.0453357 
246 2 43.204 2.37614 33.4869 -0.0278865 0.0409838 -0.00475043 
245 2 42.6636 5.72571 33.436 -0.0113804 0.0367239 0.0427631 
225 1 42.1788 3.84923 35.0607 0.0137608 0.00451919 -0.0129638 
20 1 54.263 5.56616 35.4948 0.00825007 0.000602429 0.0104118 
27 2 49.7467 1.39229 34.3945 0.0440563 0.0298145 0.0899693 
487 1 58.0588 4.35298 35.3131 0.0225741 -0.00402824 -0.0397171 
19 1 53.653 3.17772 34.9307 -0.00590043 0.00365584 0.00309006 
32 2 55.1459 5.22841 35.9441 -0.0709071 -0.0073408 0.0508607 
503 2 59.4382 4.15933 33.9588 0.0311159 0.0354137 0.00727975 
499 2 57.9251 5.06399 34.6748 0.0105113 -0.0794554 0.0774102 
478 1 59.337 3.75249 35.0361 -0.0150939 0.00645568 0.0116148 
230 1 41.3922 6.20411 34.7616 0.0403559 -0.0539223 -0.0159329 
242 2 41.5083 6.92559 34.0983 0.056584 0.0563239 0.0731713 
35 2 53.627 7.44472 34.8293 0.0677896 0.0356371 0.0660944 
23 1 53.4553 6.67084 35.6048 0.0118768 0.00326089 -0.0218281 
16 1 52.9567 2.24845 34.8663 -0.00965888 0.0105436 -0.0322561 
28 2 53.0261 1.03298 34.4206 -0.00509924 -0.0779207 -0.00210698 
31 2 54.7833 2.81161 34.6748 0.0144224 0.0720053 0.0360385 
491 1 58.1414 -0.423147 35.4593 0.00877485 0.0358755 -0.00670191 
8 1 51.5701 2.7152 35.336 -0.015643 -0.0135174 -0.0172355 
15 1 50.2749 1.85623 35.2618 -0.0248981 0.019951 -0.0203262 
472 1 59.723 2.46877 35.8187 0.016566 0.0143335 0.0187723 
25 2 48.5984 0.579752 35.9802 -0.0410345 -0.0165026 0.091006 
488 1 57.1235 -0.551514 35.6938 -0.0390151 0.0300895 -0.0158027 
504 2 60.0299 -2.11863 34.4846 0.0453592 -0.00303059 -0.00647751 
535 2 37.4489 28.7808 -11.2295 0.0312437 0.0220857 -0.0848659 
523 1 38.3314 29.1242 -11.5789 0.00430559 0.00701029 -0.0108593 
514 1 39.2486 30.0971 -10.9276 0.00115555 0.013226 0.0120348 
393 2 59.0467 35.5831 -10.8543 0.0392112 -0.00753509 -0.0861718 
313 2 41.8344 27.1689 3.71487 0.0599454 -0.0812975 -0.0852117 
536 2 37.7895 31.2326 -9.87722 0.0551409 -0.104085 -0.00201335 
524 1 38.8215 31.1495 -10.1994 0.0138236 -0.00195344 -0.000767732 
516 1 41.0874 32.3576 -10.5025 -0.021905 -0.00678133 0.0214417 
528 1 41.9188 33.6129 -10.4754 0.00132385 0.0163551 -0.0164926 
510 1 41.5823 31.3174 -11.5769 -0.0204295 0.0104593 0.00188235 
527 1 39.7533 32.3923 -10.033 0.00571711 -0.00422889 -0.00498774 
539 2 39.2006 33.2379 -9.68031 0.01064 0.104933 0.0411705 
508 1 40.6409 30.1217 -11.6797 -0.0204339 -0.00411919 -0.0259615 
526 1 43.0334 33.8822 -11.1788 0.0221578 -0.00379551 -0.012689 
538 2 42.8993 34.6992 -12.0258 -0.0150511 0.0183223 -5.77262e-05 
322 2 49.4324 22.9558 3.74951 0.0655707 0.0134586 -0.023955 
310 1 49.0771 24.1704 3.53111 0.00816876 0.0263598 -0.0176079 
296 1 44.8256 28.829 3.76328 0.0126579 0.0104631 0.00353247 
304 1 45.4491 29.7917 2.70991 -0.00571213 -0.0010397 -0.01012 
294 1 47.7383 26.8131 3.44107 -0.00164039 0.0209696 -0.000182426 
290 1 45.7539 27.8859 3.81275 -0.0140957 -0.0174113 -0.00904938 
292 1 46.9742 27.9567 3.0593 -0.026285 -0.0302562 0.0137754 
298 1 46.9559 28.2606 1.56887 -0.0124321 0.0142306 -0.00526971 
319 2 45.7849 30.0618 0.496955 -0.0608972 0.0355627 -0.0969443 
307 1 45.9642 29.5095 1.35199 0.0423995 0.00250348 -0.0304089 
303 1 43.4128 28.3693 3.45859 0.0144825 0.0109557 -0.0162322 
293 1 47.3145 25.8853 4.40571 -0.0232289 -0.00528938 -0.0119392 
289 1 45.1402 26.6545 4.60713 -0.0102611 -0.0150831 0.0144577 
316 2 45.7509 30.8185 2.5572 -0.116189 -0.067551 -0.00408467 
299 1 47.8218 24.3599 4.42215 -0.00938317 8.39897e-05 -0.000475398 
291 1 46.0007 26.0725 5.35125 0.0177891 0.0242382 -0.0251335 
301 1 42.9332 27.0718 3.85705 0.00126682 -0.00962989 0.0085035 
308 1 48.1686 27.8686 0.822545 -0.0315181 0.0210573 -0.012449 
320 2 48.092 28.5563 -0.220433 -0.0349211 -0.0250969 0.0402466 
300 1 48.8985 26.2496 2.34433 0.00341955 0.00334146 -0.0385856 
323 2 49.7614 26.5973 0.25967 -0.0177521 0.04848 0.0584523 
311 1 49.118 26.8077 1.1968 0.0203036 -0.00670108 -0.0065672 
312 1 49.5977 24.8559 2.47246 -0.00762423 -0.0129783 -0.0155653 
324 2 50.0193 24.5326 1.43705 0.0738651 0.0293465 -0.0125895 
315 2 42.7702 29.0688 2.9961 0.0270992 0.00131719 0.0395166 
98 2 59.148 17.6143 -10.8532 -0.080554 0.026654 0.0439371 
321 2 48.5603 22.985 6.2452 0.0427679 0.0266081 -0.0172572 
309 1 47.8955 23.8173 5.80054 0.00361179 0.0286755 -0.000808606 
318 2 46.992 24.3781 7.6612 0.0605301 -0.0212426 -0.0594876 
306 1 46.8423 24.4112 6.65508 0.00472226 -0.0164823 0.0122679 
314 2 42.8133 26.8246 6.66632 -0.101993 -0.123718 -0.000409047 
317 2 45.0136 25.6564 8.22748 0.0909361 0.0514744 -0.0627253 
295 1 43.7812 26.696 5.0285 -0.0119921 -0.00588907 0.0127385 
305 1 44.5697 25.5515 7.28384 0.00115269 -0.0121901 -0.012835 
302 1 43.8663 26.4565 6.44814 0.00648559 -0.0028948 -0.0105857 
297 1 45.7307 25.3108 6.32275 0.00932389 0.0340228 -0.0180041 
86 1 59.4716 17.3444 -11.9881 -0.0103983 0.00750028 0.0046112 
515 1 43.1714 32.9145 35.6931 -0.011509 0.00928375 0.0119905 
525 1 44.1277 33.1706 34.8402 0.014414 -0.0184051 5.59135e-05 
87 1 58.9713 13.7533 34.3635 0.00539451 0.019636 0.0221292 
520 1 38.8815 28.1913 35.8618 -0.0139786 -0.00813236 -0.0128127 
85 1 58.7984 14.967 35.0943 -0.00852324 0.00895013 -0.0121623 
513 1 43.9137 31.0605 33.5444 -0.0202716 -0.0156389 0.00135971 
507 1 42.7151 30.5011 34.4025 0.0331559 0.00725472 0.0217825 
99 2 58.0035 13.2807 34.426 -0.0285297 0.025459 0.0699734 
532 2 38.2394 27.4188 35.6979 0.00688856 0.0271052 0.0637367 
79 1 59.7424 16.038 35.2452 0.000966367 -0.00224201 -0.021275 
97 2 58.0721 14.5933 35.9443 0.0564238 0.00538253 -0.0533228 
517 1 41.6421 27.3429 33.3532 -0.0229763 0.00611783 0.0122036 
519 1 40.6468 26.9103 34.1359 0.00629881 -0.0208137 0.00151949 
512 1 40.2551 27.8235 35.1791 -0.016314 -0.00252689 -0.0206195 
531 2 39.8197 26.0359 34.0077 0.0181323 -0.10141 0.0631254 
506 1 41.1386 28.9231 35.737 0.00770607 0.0118257 0.00603504 
529 2 41.8187 26.8329 32.4912 -0.0526753 0.0198199 0.00809931 
505 1 42.3182 29.2224 34.621 0.0188063 0.00319388 0.0140866 
530 2 43.414 28.005 31.5722 -0.0348189 -0.00418742 -0.0647778 
511 1 42.5929 28.4559 33.3967 0.0209657 -0.00196517 -0.0177005 
518 1 43.4059 28.9855 32.2347 0.0157364 0.00204602 0.0126072 
533 2 44.4558 30.7867 31.7792 0.0542532 -0.0206595 0.0194255 
534 2 45.1355 33.9467 34.7669 0.0365936 0.0316253 0.0645304 
522 1 44.4101 32.109 34.0838 0.0212167 -0.0278801 -0.0152003 
521 1 44.0588 30.0664 32.4202 -0.00841505 -0.0189419 0.0195987 
509 1 42.4691 31.6651 35.4045 -0.00270721 0.00578855 0.0080125 
389 2 62.0073 -10.5311 -7.52409 -0.100852 0.0150085 -0.0320815 
374 1 62.4964 -8.75789 -7.93412 0.022828 -0.0286193 -0.015931 
386 2 63.236 -8.41268 -7.21104 0.00482388 0.0554778 0.0170237 
377 1 61.6947 -9.74235 -8.08437 -0.00467015 -0.0240245 0.00479939 
367 1 61.9206 -7.79077 -8.92154 0.0192282 -0.00401393 0.00728173 
385 2 63.0449 -5.95854 -8.35661 0.0173235 -0.0382805 -0.0530362 
373 1 62.2541 -6.48893 -9.05568 -0.00104682 -0.012233 -0.0117991 
368 1 60.5208 -5.53153 -9.81634 -0.00613741 -0.0213327 -0.0114339 
369 1 60.4776 -10.086 -9.12248 0.00318788 -0.00458775 -0.0014949 
475 1 61.1405 3.03206 -8.93595 0.00662501 0.00208836 -0.023972 
361 1 60.6889 -7.95502 -9.4227 0.00890261 0.0155931 -0.00827358 
375 1 61.7142 -5.24601 -9.27311 -0.016222 -0.000994789 0.00585469 
177 2 67.7828 -10.0071 -11.702 0.0509037 0.0446069 -0.00805422 
489 1 63.195 -0.822158 -11.2788 -0.00412398 0.0127102 0.000203601 
498 2 64.1666 -1.51222 -11.5552 -0.0793332 -0.0712887 -0.0912022 
387 2 62.1098 -4.28611 -8.86378 0.00344198 0.00711658 -0.0381142 
169 2 65.4233 9.97321 10.2437 -0.0127137 -0.0403293 -0.0681737 
473 1 61.235 0.684747 -11.5012 -0.00413754 -0.0080714 0.000412813 
494 2 61.5736 2.35457 -6.48767 0.123223 -0.0250908 0.00722011 
486 1 62.4474 -0.784379 -9.9954 0.00688148 -0.0126733 -0.00498722 
477 1 62.3616 0.690221 -9.23672 0.0122779 -0.00394744 0.00981594 
471 1 61.3471 1.03896 -10.0738 0.0147004 -0.0133926 -0.000624962 
485 1 62.0105 1.01458 -7.81577 0.00252952 -0.00250489 -0.0297499 
482 1 61.5439 2.28646 -7.5756 -0.0141577 0.00691761 -0.0203476 
497 2 62.2019 0.334976 -6.98732 0.0264675 0.00215056 0.0374173 
469 1 60.57 2.31784 -10.0216 -0.00312432 -0.0165613 -0.00386375 
148 1 64.2397 11.5819 6.04983 -0.0278656 -0.0148278 -0.00226187 
154 1 63.6047 10.1863 5.65561 -0.0125514 -0.000963577 0.00630431 
176 2 64.0474 10.6173 2.13111 -0.00655614 -0.0733491 0.0196618 
167 1 64.0337 11.1939 3.19774 -0.00897704 0.00500442 -0.0149212 
164 1 63.9048 10.1657 4.10031 -0.0190308 -0.00307981 0.00626143 
172 2 65.6854 8.56206 7.28081 -0.0663224 0.024444 0.0819378 
160 1 65.0611 9.37102 7.60242 0.00853194 0.0172178 -0.00968394 
163 1 63.9491 9.06194 6.65439 0.000953782 0.0091969 -0.0118512 
175 2 63.8711 8.08751 6.15042 0.0371466 0.048551 0.137446 
152 1 65.3183 10.7038 8.52334 -0.0184789 0.0251337 -0.00948617 
146 1 64.8105 11.6781 7.40756 -0.0124018 -0.0160101 0.0230768 
159 1 66.0929 11.009 9.63747 -0.00100955 -0.0196238 0.00278763 
481 1 60.6064 4.42761 -8.99228 0.0215055 0.0166073 -0.00663109 
378 1 60.0914 -11.5946 -8.95152 0.0122683 -0.00800072 -0.0221449 
493 2 60.3285 4.99343 -7.94556 0.0645802 0.00799694 0.0627612 
388 2 60.7718 -3.76849 -9.94279 0.00210866 -0.0810933 -0.0892171 
362 1 60.0518 -6.96325 -10.0676 -0.00186585 -0.00264803 -0.0225937 
142 2 76.4442 -7.87311 22.9709 -0.0103608 0.0652246 0.0168982 
119 1 77.6202 -6.77293 24.5389 0.0122969 -0.00974813 0.010022 
144 2 78.8476 -7.62078 21.483 -0.00165009 -0.132015 0.0760356 
130 1 77.4141 -7.19478 23.2325 -0.00265283 -0.00941792 0.00451801 
132 1 78.526 -7.05074 22.2559 0.00569423 0.00705625 -0.0235211 
120 1 79.6006 -5.88645 22.5654 -0.0208434 0.00387655 -0.0285196 
143 2 81.2735 -7.1667 21.6786 -0.0669713 -0.00993754 0.050097 
140 2 82.9614 -6.7296 23.3408 0.0327963 -0.0456902 0.0231556 
127 1 83.5058 -4.48572 24.0895 0.00540887 -0.00990341 -0.0163118 
128 1 82.1595 -6.05418 23.0976 -0.00160996 -0.0137922 0.0201591 
118 1 82.1522 -4.63686 23.3853 -0.0184851 -0.00549269 0.0119817 
131 1 81.0997 -6.21369 22.2699 -0.00567822 -0.00123226 0.0182657 
112 1 80.8914 -4.4749 24.062 -0.000869904 -0.0103882 0.0154192 
114 1 79.6473 -5.22596 23.7537 0.00928672 0.0149259 0.0398812 
103 2 62.1731 11.9613 31.5133 0.0918038 0.112416 -0.0358683 
141 2 76.1111 -7.93144 25.8009 0.0508011 0.037071 -0.0199481 
129 1 76.7983 -7.1644 25.6757 -0.0250619 -0.0128654 0.00629877 
126 1 77.1134 -6.55926 26.8015 -0.0148635 -0.0136087 0.0196131 
138 2 76.5002 -6.92323 27.6147 -0.012895 0.0322291 0.0207136 