ITEM: TIMESTEP
740000
ITEM: NUMBER OF ATOMS
576
ITEM: BOX BOUNDS pp pp pp
-1.2000000000000000e+01 8.4000000000000000e+01
-1.2000000000000000e+01 3.6000000000000000e+01
-1.2000000000000000e+01 3.6000000000000000e+01
ITEM: ATOMS id type x y z vx vy vz 
385 2 3.54577 11.5332 -5.09367 0.0673596 0.0132688 0.0622037 
87 1 6.66295 9.73532 -8.04596 0.00786761 -0.0170688 0.0217343 
85 1 5.97134 10.6611 -8.75519 0.0253891 0.0072894 0.00874027 
408 1 -1.76464 9.92827 2.65495 0.0103451 -0.0232632 0.0119963 
99 2 6.03161 11.0273 -9.75512 0.0277778 0.0236315 0.0421366 
80 1 5.60271 11.481 -7.4591 -0.0243793 -0.0196243 0.00429055 
540 2 9.30297 11.7335 -9.64948 -0.0526686 -0.0732016 0.00367021 
417 1 -7.51479 7.86801 4.15336 0.00143735 -0.00857694 -0.00901944 
429 2 -7.89059 6.67199 3.55492 0.0429568 0.00582443 -0.0220416 
407 1 -6.70309 8.55931 4.55669 -0.00992122 -0.0141884 0.00820135 
399 1 -5.38073 9.12718 4.87367 -0.0120216 0.0034325 -0.0187586 
426 2 -4.55153 8.33153 5.17177 -0.0280953 -0.0746674 0.0315548 
414 1 -4.22041 10.542 3.01634 0.00904529 -0.00296882 0.00939105 
405 1 -5.21343 9.6969 3.27533 -0.0203492 -0.0121559 -0.00110715 
419 1 -10.9383 11.4783 7.07276 0.000738828 0.0292996 0.00368884 
416 1 -9.78884 11.5269 7.62622 0.0120982 0.00974164 0.012453 
413 1 -2.03921 9.90943 11.7098 0.00589451 -0.016416 -0.00155771 
406 1 -8.66863 11.9549 7.87525 0.0356219 0.0144634 -0.0291591 
430 2 -0.145435 10.903 2.53451 -0.00724052 -0.081994 -0.074692 
400 1 -6.14465 11.708 7.81773 -0.0109529 0.0152156 -0.0466173 
420 1 -0.605962 9.79515 2.77658 -0.0171918 -0.0329187 0.0123234 
401 1 -5.6606 10.1896 5.70317 0.0118012 -0.0290513 -0.00988758 
402 1 -5.87773 10.9338 6.83048 -0.0177403 0.0019391 -0.000620148 
14 1 -4.8047 7.75087 9.42704 -0.00522103 -0.00146183 0.0185415 
428 2 -11.3486 10.5815 7.54049 -0.0335901 -0.0545255 -0.023334 
537 2 9.65297 11.0476 -9.2846 0.00326399 0.0159647 -0.0114333 
425 2 -1.63405 10.2033 10.5752 0.031611 -0.0672609 -0.0321087 
410 1 -3.15674 10.739 11.5769 0.00770562 -0.00855386 0.00974428 
397 1 -4.78513 10.5057 9.78908 -0.0311977 -0.0123014 0.01701 
403 1 -4.40036 11.1387 11.1352 0.00202095 -0.0126255 0.0112705 
398 1 -5.6665 11.3053 9.0627 0.024351 0.00263049 0.0276407 
17 1 -4.84068 9.1005 9.82863 -0.0106664 0.00767853 -0.00509011 
29 2 -5.78682 7.28287 9.22213 -0.00157322 -0.0148104 0.0464578 
136 2 -0.0404923 9.10773 3.46163 0.0181166 -0.0593697 0.0212231 
418 1 -3.04405 10.6393 2.06324 -0.00663744 -0.00286092 -0.021293 
432 2 -2.8448 10.018 1.15665 -0.0273852 -0.119015 -0.0085532 
572 2 11.9556 -11.7804 2.10316 0.0800413 0.0407503 0.0102244 
100 2 4.7813 11.8756 -7.61441 0.00285849 -0.0245729 -0.063535 
422 2 -1.67614 9.76068 12.731 0.0119874 -0.0154965 0.0237873 
575 2 9.91247 -3.98303 19.519 -0.0528719 0.0117145 -0.00883522 
404 1 -6.32518 12.1472 9.97663 -0.0195562 0.0158391 -0.0343565 
346 1 8.11668 20.7827 10.5696 0.000275721 0.0131594 -0.019796 
273 1 5.6924 24.0226 -5.73584 0.0116246 0.0015793 -0.00876211 
274 1 4.62336 22.4833 -3.92164 -0.00537105 0.0190525 0.00095687 
263 1 4.71007 23.3868 -5.21024 -0.00390599 0.00295645 0.0132929 
275 1 0.924963 22.482 -3.31114 -0.00296628 0.00792807 0.00106443 
272 1 -0.00211995 23.4767 -3.38637 -0.0137739 0.000579922 0.0142699 
287 2 -0.887045 23.2079 -2.79997 -0.0626067 -0.0256531 -0.0650518 
264 1 2.24776 22.7184 -3.90165 0.0159412 0.00525761 -0.000117811 
288 2 3.42127 20.6527 -3.44979 0.0112382 0.0440468 0.0266078 
276 1 3.51242 21.7369 -3.72827 -0.00561334 -0.0185552 0.00423948 
286 2 5.61719 22.4858 -3.60339 -0.0559724 0.0660754 0.068257 
271 1 -0.50974 25.904 -3.51864 -0.0106895 0.00696319 -0.00141023 
280 2 -0.932835 27.4263 -2.78035 0.0172712 0.0137367 0.0288859 
268 1 -0.20831 27.0807 -3.59009 -0.01294 0.0339087 0.0240772 
279 2 -0.0634925 29.523 -5.16999 0.0485924 -0.0275304 0.00686549 
262 1 -0.0847235 24.8285 -4.012 0.00804904 0.0295755 -0.025616 
258 1 2.41601 24.0666 -4.35116 -0.00807403 0.00950056 0.0241803 
256 1 1.43824 25.0839 -4.362 0.00928911 -0.0056089 -0.02989 
257 1 3.79492 24.5454 -4.81694 0.00803872 0.00738382 0.012095 
254 1 1.56291 26.4746 -4.82529 -0.0201975 -0.0110664 -0.012732 
260 1 0.383384 27.2509 -4.9386 0.00638027 0.0215192 0.00200993 
267 1 0.872631 28.6013 -5.13924 -0.0250918 0.0168785 0.00905641 
265 1 1.80543 29.0754 -5.99925 0.0211645 0.0259257 -0.0103314 
259 1 2.90175 28.0925 -5.95854 -0.00623542 -0.0441272 -0.00640818 
253 1 2.8654 26.9601 -5.10995 0.00531233 0.00158339 -0.0126665 
277 2 1.9255 30.1907 -6.54247 -0.05352 -0.0163321 0.00702724 
255 1 4.11256 25.8485 -5.20871 0.0120893 4.60105e-05 0.0295717 
266 1 3.86367 27.8834 -7.06645 -0.0214235 -0.0194495 0.000762 
269 1 4.8567 26.8782 -7.51396 -0.0152651 -0.0167965 -0.00838035 
261 1 5.06906 26.1272 -6.21768 0.000145058 -0.000528086 -0.0295389 
285 2 7.14779 25.162 -6.83035 -0.00771059 0.082613 0.0224453 
281 2 5.41332 26.8715 -8.52767 -0.0579872 0.0113288 -0.00490068 
270 1 6.24558 25.0913 -6.18281 -0.00810777 -0.0218613 -0.00345866 
424 2 -7.62521 13.6258 10.0792 0.056074 -0.0497091 -0.105548 
135 2 2.56476 35.3002 4.34404 -0.0653763 0.0449826 0.0165 
412 1 -7.16938 13.1267 9.32446 0.0316906 -0.000632021 -0.0148093 
282 2 2.61054 35.2362 5.10651 0.10679 0.0466497 -0.0789236 
360 2 6.87868 22.6773 10.7571 0.0302797 -0.0340917 0.0521092 
411 1 -6.12129 12.5888 11.3063 -0.0134207 0.0341041 -0.0112718 
216 2 8.54168 18.4933 9.42538 0.109727 0.10675 -0.00569467 
354 2 10.1144 16.6755 10.8146 0.118578 0.0371 -0.0616238 
345 1 8.94381 18.5017 10.4838 -0.00947121 -0.00920088 -0.0176376 
342 1 9.70746 17.6471 11.1975 0.0103979 0.01978 -0.0245111 
358 2 7.94018 20.7673 9.45584 0.00861805 0.00573956 -0.0554375 
335 1 8.86966 19.7443 11.3169 0.00626529 -0.000811521 0.00875362 
348 1 7.47988 21.8436 11.2705 0.0168761 0.00931656 -0.0115897 
415 1 -7.46327 12.5515 7.956 0.0146861 0.00123394 -0.0178447 
409 1 -5.02292 12.2538 11.8929 -0.0164592 0.00418823 -0.00239331 
431 2 -11.3532 12.106 6.25033 0.0550275 -0.0473243 0.0111171 
427 2 -6.84949 13.5201 11.8442 0.0509544 -0.0275024 0.0723322 
21 1 -11.8714 29.8641 32.7885 0.0106163 0.00425068 0.0258973 
341 1 11.3054 17.3429 13.3374 0.000940112 0.00748963 -5.63702e-05 
333 1 10.4677 18.1389 12.5885 -0.003249 0.0112413 -0.0200868 
338 1 11.7233 17.199 14.758 -0.0115836 -0.0186667 0.000742645 
359 2 5.1829 22.7731 12.9557 0.0136636 0.032226 -0.0444012 
339 1 9.48025 18.5662 17.6574 -0.00629184 -0.00559478 -0.0131801 
337 1 10.4048 17.7507 16.88 -0.0111836 0.000885283 0.018585 
340 1 7.75686 20.2722 17.6963 -0.036406 -0.00141407 -0.00410611 
344 1 6.10975 22.457 14.8358 -0.0100265 -0.0280833 0.0276109 
347 1 6.07686 22.3467 13.5027 0.010974 -0.0423634 -0.00477283 
334 1 7.05309 21.4899 15.4108 0.0261217 -0.0151866 -0.0121753 
336 1 7.07001 21.5872 12.7292 -0.00697379 0.0109492 -0.00737658 
328 1 7.98625 20.5283 14.7541 0.00499734 0.00288271 0.0196872 
330 1 8.00438 20.5822 13.4664 0.00454783 0.00699381 0.0146237 
329 1 9.13569 19.9044 12.7341 0.00618273 0.0141091 -0.0263382 
327 1 9.98623 19.1097 13.3679 0.0174401 0.0124881 0.00622639 
325 1 9.95424 18.9894 14.7967 0.00129423 -0.01673 0.0108726 
331 1 10.7799 18.0289 15.5415 0.0125416 -0.010671 0.0160203 
326 1 8.89445 19.6942 15.4401 -0.00812733 0.00496428 0.000974957 
332 1 8.87987 19.5649 16.9432 -0.0268129 0.00795175 -0.0193004 
343 1 7.04185 21.0976 16.6647 -0.00195898 -0.0163075 0.00884733 
356 2 5.14626 22.5567 15.6118 -0.0401877 0.00408094 0.0996153 
351 2 8.87791 18.2225 18.5562 -0.0603365 -0.0174568 -0.0890973 
9 1 -11.2683 28.866 30.443 0.0048873 0.0161136 0.00817447 
142 2 0.869864 24.8568 30.0928 -0.00298361 0.0512328 0.0598949 
141 2 0.814093 27.4856 28.8133 -0.0188434 0.0145281 0.0602395 
130 1 1.89063 24.8869 30.1195 -0.00415269 -0.00713363 0.0171578 
129 1 1.62962 26.83 28.4723 -0.0264473 -0.0103288 0.0194852 
119 1 2.50674 26.0299 29.2319 -0.00701107 -0.00187347 -0.00199599 
138 2 2.31835 27.5211 26.5431 -0.13546 -0.088241 0.0401542 
126 1 2.59005 27.0605 27.4423 -0.0453524 -0.0066206 -0.0172006 
114 1 4.84677 25.0022 30.2989 -0.00568543 -0.00982871 -0.000279568 
117 1 3.98157 27.2934 27.6411 0.00387916 -0.0339544 -0.00751908 
113 1 4.03339 25.7519 29.3519 -0.00889148 0.000391843 -0.0357061 
111 1 4.60157 26.8801 28.6645 -0.00887554 0.0364059 0.0127665 
137 2 4.49145 27.4527 25.5912 -0.00792017 -0.0589488 -0.00293321 
110 1 6.73116 26.7468 29.9061 -0.0213042 -0.013816 0.0207692 
123 1 8.87408 27.7427 28.9053 -0.00895642 -0.0168649 -0.0109893 
121 1 8.44196 28.1102 27.686 -0.0165266 -0.00189449 -0.00417435 
125 1 4.99026 27.362 26.5049 0.0227551 0.0320416 0.0174994 
109 1 6.08064 26.7512 28.6621 -0.0166371 0.00855337 -0.00476886 
122 1 6.43249 27.6276 26.1412 -0.0134882 -0.0116407 -0.00508052 
115 1 6.9284 27.2954 27.386 -0.00356253 0.0183966 -0.0091578 
134 2 6.64455 27.7176 25.0385 0.031291 -0.0673937 0.0844889 
250 2 -7.81684 30.2064 25.8018 -0.0486974 -0.0250438 0.0170478 
120 1 4.08304 24.1467 31.1515 -0.0126224 0.0285575 0.00161231 
132 1 2.49888 24.5417 31.4543 -0.0169867 0.0106254 -0.00216207 
143 2 4.78389 22.3865 32.3941 -0.0147609 -0.0214606 -0.0205763 
131 1 5.0773 23.047 31.5261 0.0187956 0.00768086 0.0146738 
496 2 8.85492 24.1666 31.6978 0.000520252 -0.0295876 0.0276087 
128 1 6.29969 23.5669 32.0797 0.00697222 0.00127953 -0.000966378 
140 2 6.68745 22.4937 32.3719 -0.0180474 0.0653889 0.0216873 
26 2 -9.81112 29.5807 32.3249 -0.00641921 -0.0799689 0.048901 
18 1 -10.8038 29.5378 31.8847 -0.00156628 -0.00416449 0.000213536 
112 1 6.04709 25.8775 30.9208 0.00190377 -0.00365579 0.0303112 
139 2 10.185 26.3263 30.4944 0.0722936 0.037375 -0.0529697 
116 1 8.34356 26.8653 29.8519 -0.0264919 -0.00241482 -0.0358054 
124 1 9.08363 26.0398 30.7643 -0.00169478 -0.0071451 -0.00736233 
118 1 6.77207 24.9317 31.6201 -0.0079644 0.0265718 -0.00845998 
127 1 8.28359 24.8858 31.1915 -0.00856996 0.0188478 0.0196318 
349 2 11.2417 16.9898 17.0957 0.0447461 -0.0114957 0.0554778 
353 2 11.792 16.2963 12.9793 -0.028705 0.0210752 0.04038 
423 2 -4.72347 12.4738 12.8777 -0.152606 0.0354862 -0.0322925 
464 2 15.5423 3.15756 9.47832 0.119402 0.0221464 0.0588388 
235 1 13.7178 11.5995 -5.93865 0.0132789 0.00994443 0.0215716 
232 1 14.3358 11.2344 -7.22144 -0.00979288 0.0456466 0.0120951 
244 2 13.6926 11.1358 -8.03511 -0.0493514 -0.0587268 0.0750876 
243 2 16.3191 10.1323 -9.01614 -0.041743 -0.0765238 -0.00322351 
224 1 15.6591 10.7222 -7.0784 0.00393398 0.0220094 0.010866 
231 1 16.6786 10.4191 -8.1941 -0.00503371 -0.0143948 -0.0112467 
241 2 18.4146 8.91741 -8.25547 -0.0353798 -0.0822254 0.0409693 
229 1 17.5084 9.40415 -7.68105 0.0114148 0.0165894 -0.0186584 
223 1 18.3199 9.70956 -6.69952 -0.0283273 -0.001447 0.00678899 
242 2 19.7673 8.16353 -6.8021 0.00388882 -0.00803756 0.00508816 
230 1 19.5292 9.19348 -6.17382 -0.0201022 0.0107588 0.00052129 
226 1 14.3413 11.8925 -4.75186 -0.000142062 -0.00501844 -0.00532107 
218 1 16.4095 10.6003 -5.78042 0.00241202 0.0118757 -0.0103283 
552 1 14.1143 -11.6388 1.46196 -0.034854 0.0101576 -0.0222147 
220 1 15.5652 11.1805 -4.74861 -0.00455102 -0.0235964 -0.0302904 
222 1 16.4014 11.3266 -3.62564 0.0122651 0.0472216 0.00217447 
554 1 15.4133 -11.9882 5.33175 0.0289565 -0.0126385 -2.30501e-05 
221 1 17.7807 10.8484 -3.5947 0.0139456 -0.00995528 0.0074398 
227 1 18.3603 11.0235 -2.42191 0.0283776 0.0147944 -0.0167726 
569 2 18.4071 -11.3098 5.78932 -0.0364217 0.0577478 0.0584477 
249 2 20.1571 10.8178 -0.791067 -0.0622661 -0.00939129 0.0604951 
237 1 19.718 10.7434 -1.95107 0.00248149 -0.00841455 0.00754725 
219 1 18.5449 10.7588 -4.61775 -0.025111 0.0109036 -0.0121103 
217 1 17.931 10.5101 -5.87453 0.0016865 -0.00450749 0.00276562 
233 1 20.1573 9.13058 -5.05256 -0.0175724 0.0127171 -0.000992924 
234 1 20.4791 10.2101 -2.9246 0.016156 -0.00150445 -0.0128656 
246 2 21.5585 10.002 -3.23931 0.0343087 0.0267354 -0.0875237 
225 1 19.7537 9.98323 -4.1884 -0.0325196 0.00277545 0.016257 
245 2 21.1589 8.55908 -4.94088 -0.0315821 -0.0410474 -0.0682859 
576 2 15.1764 -7.03165 0.875724 -0.00983715 0.0630333 0.0400298 
570 2 14.9314 -10.3051 6.84488 0.12166 -0.0100878 -0.000795295 
562 1 14.6159 -6.58931 3.11768 -0.0184878 0.00698737 0.0268178 
544 1 17.1034 -9.30855 1.8428 0.00372133 -0.0204498 0.00836794 
542 1 18.0027 -10.3337 2.61368 -0.0147895 0.00078819 -0.00495552 
541 1 17.8357 -10.5374 3.98452 0.00465211 -0.00979979 0.0258944 
543 1 16.5444 -9.68898 4.09458 -0.0119521 -0.00440799 0.00518813 
545 1 16.1898 -8.46871 3.50223 0.0155832 0.0294702 0.0113624 
549 1 15.6384 -10.4125 5.07879 0.00506469 -0.0117523 0.000352973 
546 1 16.3277 -8.14466 2.24403 0.0212649 -0.00296998 -0.00260495 
551 1 15.0545 -7.73656 3.9337 -0.00467043 -0.0447312 -0.000149413 
564 1 15.1552 -7.07433 1.93055 0.0102253 0.00741025 -0.0105062 
558 1 15.2009 -9.4258 5.92085 0.0336178 -0.0199599 -0.0154403 
561 1 14.8895 -8.13282 5.36408 0.00257468 0.0037504 -0.00208777 
550 1 16.4557 -10.256 0.786734 0.0118009 0.00810566 -0.0214505 
559 1 17.3378 -11.1376 0.000317663 -0.0199357 0.00059464 0.00680551 
573 2 14.344 -7.3232 5.79285 -0.0950648 0.0139505 -0.0313461 
556 1 18.5926 -11.7578 0.467953 -0.0122006 0.00263196 0.00260474 
571 2 17.0038 -11.6796 -1.0733 0.0219344 -0.0350686 0.0073012 
547 1 18.8074 -11.2603 4.77175 0.0070024 0.00471434 0.00816097 
421 2 13.746 -5.86329 3.31479 0.03806 -0.0147858 0.00696654 
555 1 18.7338 -11.4379 1.97627 -0.0279644 0.0193686 -0.00995046 
560 1 15.1211 -10.8757 0.991557 -0.00913115 0.00745229 -0.0338498 
563 1 12.9779 -11.9824 1.85181 0.00531339 -0.00935079 0.0180903 
64 2 14.5713 3.44698 9.00375 0.11937 0.00178026 0.0549076 
247 2 12.6544 11.6801 -6.12717 0.00798455 -0.000468757 0.0270155 
553 1 19.6521 35.749 4.12711 -0.0104773 0.0128996 -0.00302944 
240 1 16.7273 12.9389 -1.7421 -0.00974052 0.0306281 -0.0174196 
251 2 12.3903 12.6594 -3.5848 0.0344545 -0.0301861 0.0154541 
252 2 16.3994 13.5881 -0.947291 0.00393108 0.0145278 0.0432118 
239 1 13.4427 12.6377 -3.7561 0.0109645 -0.0289683 0.0180525 
236 1 14.5276 12.8859 -2.88739 0.00863842 0.00437241 0.00320012 
548 1 19.8986 35.9226 2.72324 -0.0117957 0.00759732 0.013438 
568 2 19.2636 35.6762 -0.322956 -0.0196974 0.00238147 0.0229258 
394 2 26.2483 21.9004 0.548837 -0.0192236 -0.0589829 0.0292628 
144 2 26.1443 21.9639 0.0722833 -0.0839291 0.126867 -0.050941 
238 1 17.958 12.291 -1.78775 -0.0300533 -0.00239859 -0.00487228 
565 2 20.2899 35.0823 4.84625 0.103217 -0.0198606 -0.055471 
566 2 14.0149 34.7608 6.02955 0.140513 0.0350579 -0.0826898 
567 2 20.6069 35.501 1.99731 0.055826 -0.00373545 0.0501481 
557 1 15.1341 34.9748 5.54689 0.00529203 -0.0150821 -0.016345 
357 2 18.866 12.6888 -1.3349 0.0258296 0.0278582 0.0446013 
228 1 15.7046 12.4317 -2.80341 0.00199969 0.0102247 0.0311341 
350 2 12.4533 16.4001 15.0534 -0.0220863 0.0920282 0.0203206 
177 2 23.0624 23.738 33.839 -0.0116631 0.011284 -0.0241736 
176 2 12.9382 13.6808 28.5593 -0.0196722 0.00976406 0.058947 
248 2 13.6469 13.8059 29.0989 -0.00720438 -0.0766665 0.0222954 
33 2 28.37 20.7419 31.5476 -0.010332 -0.0368393 -0.0366431 
71 2 44.1923 9.44442 -6.37203 0.0273067 0.074187 0.0620978 
504 2 43.5614 9.18769 -6.92224 0.0172031 0.0455683 -0.0556656 
179 2 52.1681 10.9101 21.6704 -0.00930694 0.0781947 -0.00647675 
539 2 52.0659 10.4648 21.095 -0.0272735 0.0243188 0.0319037 
106 2 53.5773 22.0318 7.97338 -0.0131823 -0.0577738 -0.0125012 
452 1 49.1231 27.2046 -11.3456 0.0133447 0.00866841 -0.0198493 
494 2 59.5467 22.9653 -11.3669 -0.121606 0.0860305 -0.00074029 
455 1 49.719 28.443 -11.323 -0.0208175 -0.0108394 -0.0175091 
444 1 51.2562 28.3244 -11.7474 0.0167974 -0.0134396 0.00843446 
456 1 52.2596 29.3762 -11.9161 -0.0210614 0.0034752 -0.00446901 
468 2 53.1213 29.8479 -11.5648 -0.0241768 -0.0141298 -0.0222786 
462 2 54.9591 31.4453 -10.6838 -0.0382556 0.0149134 -0.0349054 
450 1 55.6575 30.8499 -11.4097 0.00736047 -0.00274519 -0.01898 
210 2 42.7166 15.9263 -6.62714 -0.0396984 -0.0363418 -0.0202 
103 2 46.9896 17.2583 2.5756 -0.0571545 0.041307 -0.0682912 
88 1 48.0501 17.6749 2.69797 -0.000497715 0.00528078 0.000168701 
97 2 52.8757 21.7632 0.584963 -0.0314949 0.0439755 -0.0103277 
355 2 50.648 19.5131 1.40052 0.0424105 0.00649215 -0.0127273 
74 1 51.2576 20.0387 2.36325 0.00751245 -0.0157151 -0.0330295 
78 1 51.5638 20.2259 4.94621 -0.0150948 0.0114329 -0.00423601 
76 1 50.6304 20.0672 3.80907 0.0225541 0.00062781 0.00651814 
73 1 52.4686 20.2784 2.36167 0.0127502 -0.0116203 0.0226804 
82 1 49.207 19.8309 4.1793 -0.0281269 -0.00402462 -0.0172407 
91 1 48.3265 18.9204 3.5843 -0.0086736 -0.013171 -0.00300536 
75 1 53.2978 20.901 3.5347 -0.00704277 0.00893576 -0.0159257 
77 1 52.8468 20.8171 4.81905 -0.0380475 -0.0106724 0.0217625 
79 1 53.0881 20.7058 0.875563 -0.0204379 0.00512507 0.00504976 
98 2 55.2832 20.5877 -0.0708577 -0.0299448 -0.0215819 -0.0667619 
86 1 54.7314 20.6941 0.979962 0.0058907 0.0206192 -0.0102063 
101 2 56.6048 20.8485 1.80856 0.0652815 -0.00487117 -0.0303798 
89 1 55.5602 21.0972 2.26711 0.000711304 0.0166561 0.00959301 
102 2 56.8286 21.2155 4.49567 -0.0442966 0.0165036 0.04147 
93 1 55.3137 20.2363 5.81975 -0.00167823 -0.0272835 -0.0263524 
83 1 53.8942 20.5941 5.91492 -0.0103151 -0.010179 0.000654349 
90 1 55.9306 20.6017 4.53055 -0.0124005 0.00442382 0.0162358 
81 1 54.7769 21.101 3.47052 0.00293706 0.0134527 0.0294017 
94 1 53.1976 21.4249 7.21992 -0.00228394 -0.0143867 -0.00435216 
95 1 49.4371 20.4209 6.3952 0.00797233 0.0152763 -0.00200477 
107 2 49.1013 20.6101 7.41379 0.0854709 -0.0032599 -0.0450234 
104 2 47.7679 20.1307 5.91603 0.0571829 -0.0418863 -0.0880354 
92 1 48.6042 19.6577 5.51604 -0.018879 8.74198e-06 -0.00217727 
96 1 51.8331 21.1565 7.01226 -0.000886838 0.00496701 -0.00417828 
84 1 50.9876 20.361 6.25694 0.0261319 -0.0131737 0.00674918 
284 2 43.4125 15.6947 -6.86498 -0.0163056 -0.142185 0.13362 
467 2 49.3936 29.2101 -11.9125 0.0205695 -0.019606 0.0887904 
460 2 47.2688 24.9153 33.2925 -0.0728021 -0.035915 -0.0550389 
443 1 54.637 29.1564 34.7765 0.00561847 -0.0188968 -0.0244145 
465 2 55.1249 28.3288 34.1593 -0.0593106 0.056343 0.106806 
440 1 49.7886 25.0797 32.9704 -0.00851069 -0.00470522 -0.00910989 
447 1 50.3846 24.5133 31.8235 0.0441438 -0.0137106 0.0293414 
448 1 48.3748 25.0397 33.5147 0.0200458 -0.000428152 -0.00844018 
459 2 50.1365 23.5165 31.5704 -0.0210634 0.0168772 0.00732215 
451 1 48.1528 25.4074 35.0223 -0.0218342 0.0242454 -0.0195973 
457 2 50.5403 25.1242 29.2912 -0.0112168 -0.0233042 -0.0305884 
445 1 50.5726 25.4083 30.5653 0.0179877 -0.000863898 0.00680723 
458 2 52.8149 28.9965 29.5111 -0.00885423 0.00453304 0.0109997 
436 1 50.128 27.0565 34.4017 0.00451147 0.00383205 0.0305602 
446 1 51.0492 27.4225 29.8374 0.0148356 -0.0300328 0.00962805 
434 1 50.3695 26.3114 33.2733 -0.0270328 -0.0140152 -0.0125243 
435 1 51.8724 28.3747 32.5044 0.0108358 -0.00502969 -0.00373264 
441 1 52.2974 29.1344 31.4121 -0.0170348 0.0159726 0.0113799 
433 1 51.407 27.0614 32.4815 0.025079 -0.0117706 -0.00531373 
439 1 51.2419 26.5354 31.0155 -0.00354391 0.0117764 -0.00664819 
437 1 52.2532 28.4827 33.9955 0.0325338 -0.0354767 -0.00860203 
449 1 51.9878 28.5305 30.2102 -0.00651274 0.0218314 -0.00907474 
461 2 52.8655 30.0922 31.5735 -0.0564227 0.0462966 -0.0541232 
438 1 51.2026 27.7443 34.94 0.00258888 0.00831429 -0.0042407 
454 1 53.0244 29.3557 34.6819 0.000828108 0.0122854 -0.0162236 
442 1 49.0568 26.481 35.2337 0.0207694 -0.00695076 0.0117326 
453 1 55.2635 30.1248 35.4855 -0.00888084 -0.000841465 0.0056178 
463 2 47.8268 24.592 35.768 0.048433 -0.00807301 -0.0380066 
196 1 78.1871 -9.49446 -10.2878 -0.00176029 0.010662 0.011716 
199 1 77.2142 -9.9114 -9.17402 -0.00288801 -0.00437391 -0.0112345 
190 1 77.1778 -9.06752 -7.98919 -0.00411402 -0.024341 -0.0181934 
211 2 77.1149 -10.97 -9.39108 0.0514823 0.0622834 -0.0165296 
184 1 78.4935 -8.99565 -7.16793 -0.00527802 0.0116804 -0.00584984 
212 2 74.7281 -9.22132 -7.75578 0.00436682 0.00836754 -0.088567 
200 1 75.8068 -9.28414 -7.37445 -0.0196545 0.00244691 -0.0157482 
208 2 78.0613 -10.0239 -11.0803 -0.0312936 0.00193106 -0.0515892 
186 1 78.1886 -7.87367 -6.14752 -0.010828 0.0164617 0.00985831 
188 1 79.2698 -8.8908 -9.62064 0.00527624 -0.0167294 -0.00379767 
195 1 80.2433 -8.353 -10.587 0.0225271 -0.0232999 -0.00161465 
182 1 79.5531 -8.60948 -8.24132 0.0113609 -0.00101491 0.0148774 
193 1 80.6107 -7.00427 -10.3214 -0.00316878 -0.00945083 -0.00261869 
181 1 80.5363 -7.71284 -7.94678 -0.0172884 0.00666822 0.00430008 
187 1 81.0572 -6.86392 -8.95163 0.0305485 0.0191858 0.000534045 
207 2 80.5572 -8.34852 -11.6075 0.0681101 -0.00798617 -0.0406766 
205 2 80.4249 -6.07117 -10.9309 -0.0677884 0.0875658 0.00949113 
185 1 79.0969 -6.89452 -6.13749 0.0120228 -0.0195241 0.00398807 
183 1 80.4659 -6.77806 -6.66269 0.0184494 -0.0106354 0.0147539 
194 1 81.8543 -5.54377 -8.70854 0.00243803 0.0152365 -0.0066508 
206 2 82.0348 -4.45736 -8.59314 -0.00709881 -0.0649118 0.00747703 
197 1 82.4083 -5.85507 -7.39834 0.00777551 0.0154629 -0.00407683 
209 2 83.3104 -5.97571 -7.91975 0.00561418 -0.0605708 0.0499514 
189 1 81.1771 -5.55752 -6.556 -0.0229788 -0.0157228 0.00360152 
133 2 80.7827 -3.3462 -5.28171 0.10131 0.045393 0.0381892 
198 1 80.5254 -4.30311 -5.90057 0.00772362 -0.000823835 -0.00300967 
203 1 75.9794 -8.69853 -5.99932 -0.0204298 -0.00615913 -0.00804645 
192 1 77.0583 -8.41151 -5.21056 0.00349521 -0.00607997 0.0032009 
204 1 77.4436 -8.87298 -3.91167 0.0133562 -0.0070584 0.00056285 
215 2 74.9435 -9.0845 -5.74906 -0.0255182 -0.0277782 0.0539046 
171 2 78.0969 -7.57298 -0.440569 0.0264017 -0.0328352 -0.00159269 
202 1 77.8238 -9.70384 -2.75063 0.00438857 0.00231955 0.0179657 
214 2 77.7607 -9.37815 -1.60814 0.0820319 0.0445468 -0.0851455 
283 2 77.7853 0.222624 -5.19753 0.0304248 0.131783 0.0333544 
278 2 77.4202 0.502096 -4.71774 0.0369879 -0.0292741 -0.0700606 
213 2 77.4333 -5.03168 -5.90036 0.0246542 -0.0227443 -0.00342957 
105 2 70.1438 -1.41436 2.22009 0.0444324 0.0387595 0.0319606 
466 2 69.7944 -0.61994 1.80668 -0.13118 -0.00785548 0.122822 
191 1 78.3207 -5.73824 -5.46311 0.00980144 0.00992557 -0.0175888 
201 1 79.2744 -4.86287 -5.52004 -0.00223862 -0.028506 0.0306246 
172 2 72.42 -10.1101 2.77755 -0.0321484 0.167264 -0.0196403 
169 2 75.6023 -7.86805 -1.22385 -0.000756825 -0.00273056 -0.0427381 
167 1 74.1375 -11.4582 3.92976 -0.0126446 -0.00701402 -0.0226391 
163 1 73.0942 -10.3189 2.00206 -0.034026 -0.0123059 0.00894833 
145 1 77.5806 -10.3369 1.74327 0.0206223 -0.00308876 0.00205153 
151 1 78.0115 -9.33082 0.645799 0.0109887 -0.00114119 0.00929161 
157 1 77.3188 -8.10453 0.216622 0.00171057 -0.00982885 0.00943991 
159 1 75.9107 -8.23727 -0.09171 -0.000709188 0.0148497 0.0126878 
152 1 75.2421 -9.23319 0.640332 0.0240776 0.0179101 -0.0194668 
160 1 73.866 -9.56521 0.923794 -0.00836727 0.00701796 0.000721297 
146 1 76.1577 -10.4263 1.59306 0.00282233 -0.00945636 0.0225668 
164 1 74.4428 -11.3655 5.088 0.00789413 0.0118568 0.0212521 
154 1 73.8125 -11.6319 2.34721 0.0130778 0.0186669 4.44638e-05 
170 2 79.6674 -8.46595 -0.673398 -0.0189669 0.00453526 -0.032458 
153 1 79.5473 -11.3698 1.10154 0.0155604 0.0159537 -0.00557746 
158 1 79.4362 -9.24106 0.147359 -0.00305817 -0.0507275 6.73981e-06 
173 2 81.1675 -10.3333 -0.401993 0.0342416 -0.00955567 0.0312613 
161 1 80.2941 -10.3882 0.312031 -0.00198177 -0.0177553 0.0139376 
147 1 78.0974 -11.5681 1.05731 0.0185313 -0.00167838 -0.0245569 
389 2 76.8421 -6.12064 8.09232 0.01432 -0.01104 -0.0411353 
495 2 75.4781 -7.23537 6.57457 0.104995 0.0431707 0.0169158 
363 1 77.496 -9.50181 8.03174 -0.00858431 -0.00645013 0.014429 
365 1 76.8388 -10.8158 7.95701 0.0106117 -0.000785193 -0.0168735 
381 1 75.1767 -9.44635 6.59772 0.00605807 0.0202554 -0.00823048 
371 1 75.8108 -10.7337 7.03016 -0.00425237 0.0093282 0.0203002 
378 1 75.7464 -8.24287 6.86152 -0.0230048 -0.021773 -0.00361871 
369 1 77.1281 -8.18854 7.43557 0.0208733 -0.00575199 0.0042866 
377 1 77.4566 -7.00703 8.25318 0.00246143 0.0114338 -0.0127185 
393 2 73.9412 -9.39433 6.14798 0.0447778 -0.0735688 0.0194889 
387 2 80.6128 -7.89631 10.9637 0.0266402 -0.0282674 0.0476564 
373 1 80.4263 -8.5125 9.97393 -0.00970796 0.00701079 0.0124186 
361 1 78.9195 -9.72457 8.58102 -0.00455522 0.0124608 -0.0158764 
367 1 79.4799 -8.43867 8.93506 -0.0185258 0.0131595 0.00479921 
368 1 80.6895 -11.015 9.20566 0.00419687 0.0036224 0.0113776 
375 1 81.1899 -9.71373 9.77434 -0.0102805 -0.017 0.00673893 
388 2 82.2113 -9.77992 9.98171 -0.104603 -0.0343732 -0.123737 
374 1 78.7296 -7.16211 8.94624 0.00223501 -0.0139206 0.00105832 
386 2 78.9457 -6.51351 9.91474 -0.0718478 -0.000617679 -0.0439826 
362 1 79.4614 -11.0505 8.60344 0.0262118 -0.000218786 0.00672361 
148 1 75.3225 -11.5106 2.0513 0.00113058 0.00338178 -0.0292804 
382 1 75.1216 -11.8677 6.41244 0.00841425 0.00321838 -0.0267782 
294 1 78.4316 -8.52614 22.7633 -0.00854141 -0.0107757 -0.0125426 
310 1 76.0791 -8.87773 22.7146 -0.012045 -0.00633255 0.0129177 
293 1 77.3975 -8.9873 21.9565 0.00793698 0.0173583 0.0346532 
306 1 74.9802 -9.57077 22.1685 -0.0115545 0.00829667 -0.00717892 
299 1 74.8576 -10.8117 21.3189 -0.00974261 0.0184614 0.0154316 
297 1 76.94 -10.726 20.49 -0.00692506 -0.00526834 0.00188278 
524 1 73.6155 8.91072 27.8867 0.00862503 -0.0043988 -0.00530752 
322 2 75.8828 -8.45625 23.7049 -0.0230844 -0.0677175 -0.0674171 
324 2 76.0511 -6.01306 24.2763 0.0252573 0.0950008 0.0176483 
309 1 75.8938 -11.3587 20.7022 -0.000845284 -0.00692815 -0.00362878 
292 1 79.7339 -8.13293 22.139 -0.0142927 -0.00551784 -0.00224566 
296 1 81.7418 -9.58872 21.1961 0.00671318 -0.020425 -0.0198673 
290 1 80.2063 -9.24509 21.2701 -0.00618733 -0.00164809 0.000393102 
291 1 77.7839 -9.81245 20.8265 0.0204894 0.0169206 0.0142822 
289 1 79.381 -9.96793 20.7116 0.00127379 0.00326724 -0.0218806 
295 1 79.6916 -11.1842 19.8669 -0.0240592 -0.00991424 -0.0129454 
304 1 82.5748 -9.18586 22.256 -0.000588312 -0.0214044 -0.0212541 
530 2 78.2296 11.1211 20.6252 -0.00601553 -0.00102204 0.0589214 
301 1 80.8845 -11.2261 19.4375 0.00654123 0.00893031 0.00960848 
303 1 81.7362 -10.0085 19.848 0.00590236 0.00633014 -0.00199645 
315 2 82.2727 -9.12575 19.4089 0.045917 0.00675788 0.00843606 
316 2 83.6758 -9.656 22.405 0.0193851 -0.0747096 -0.0331599 
298 1 80.6883 -7.71118 23.2685 -0.00452764 -0.00622657 0.0289173 
307 1 81.9386 -8.22904 23.0652 -0.005962 0.00515103 0.00164436 
319 2 82.6749 -8.06299 23.8859 0.0363414 0.0348766 0.105748 
532 2 74.7042 5.11688 25.027 0.120751 0.0442807 -0.0715098 
531 2 75.8668 5.54603 23.2729 -0.0956061 -0.0457262 0.0117415 
517 1 76.4702 7.38698 22.1805 0.0163718 -0.0145296 0.0236817 
529 2 77.531 6.93755 21.7115 0.0208885 -0.130632 0.0693381 
519 1 75.7733 6.59323 23.0604 0.0121196 0.00790825 -0.00218716 
512 1 75.1932 7.12278 24.352 0.00214071 0.00706834 0.0210233 
511 1 76.4069 8.96263 22.5643 -0.0101128 0.00867969 0.0287439 
506 1 75.2044 8.52269 24.6587 -0.0052447 0.0186786 0.00478403 
505 1 75.6747 9.56178 23.835 0.0175872 -0.0016336 0.0167867 
507 1 75.9805 10.8633 23.9695 -0.0123845 0.0087061 0.00863121 
518 1 77.0834 9.87054 21.9905 0.000282397 0.0099534 0.00632761 
521 1 77.8515 11.0421 21.7469 -0.00640331 -0.00627572 -0.0349933 
323 2 77.1981 -6.29684 22.5776 0.029551 0.0292194 -0.0993147 
312 1 76.4686 -6.55333 23.619 0.0179453 0.0258844 -0.010539 
300 1 77.8407 -7.41765 23.7416 -0.000338757 -0.0187055 0.00956146 
311 1 78.9727 -7.32353 24.6106 0.0346649 0.0082955 -0.0226557 
308 1 80.3068 -7.05834 24.4258 -0.0152652 0.00292128 -0.0051978 
320 2 81.0363 -6.78044 25.1812 -0.00711874 -0.00177538 -0.0882394 
321 2 75.5183 -7.05532 23.0831 -0.0134045 0.0291277 -0.082033 
510 1 74.3301 10.6854 25.7806 0.0178258 -0.0309945 0.0229527 
527 1 74.0422 10.2956 28.1155 0.00023908 0.000699031 0.00742735 
509 1 75.3715 11.4929 25.2413 0.000565256 -0.00202908 0.0229278 
520 1 74.6461 6.30038 25.4349 0.019683 0.0112116 0.00377608 
535 2 74.1239 6.13954 27.2066 0.0414899 0.0866703 0.00239125 
516 1 73.9622 11.3344 26.9141 0.0264672 -0.0034569 0.0196338 
508 1 74.7569 9.10933 25.6698 0.000521534 0.0129214 -0.0123676 
523 1 74.6065 6.91646 26.7514 -0.0109058 0.0150186 0.0180599 
514 1 74.4014 8.23774 26.7667 -0.0511662 -0.0251988 0.0178261 
536 2 73.2616 8.22527 28.6025 0.00213414 0.0102833 -0.0475156 
318 2 73.8665 -11.3506 21.4621 -0.00530674 0.0638206 0.033939 
313 2 81.631 -11.5501 18.7767 0.0329198 0.0526973 -0.058021 
498 2 61.1291 21.8793 -9.52818 -0.0836015 -0.0986181 0.0128753 
485 1 61.4091 22.4284 -10.5774 0.00678837 0.00360087 0.00910538 
477 1 62.949 22.1309 -10.6655 -0.0113523 0.00943384 0.0134294 
501 2 63.6219 20.85 -8.97349 -0.0536289 -0.0519658 -0.0741356 
488 1 63.7943 21.4142 -9.82232 0.042742 -0.0208373 0.00675051 
502 2 74.6896 20.8842 -11.212 0.00421712 -0.0843568 0.0230785 
474 1 65.8541 22.1117 -10.9812 0.00262802 -0.0388584 0.0127061 
366 1 77.8042 35.9955 7.62215 -0.00193771 0.00324456 -0.0113263 
491 1 65.3535 21.3239 -10.0058 0.000976153 -0.0211548 -0.0184856 
500 2 65.7921 20.3217 -9.60251 0.00937441 -0.0453384 0.0300414 
492 1 71.3033 22.4564 -11.9868 0.0223407 0.00781948 -0.0141989 
471 1 63.5534 22.572 -11.9785 0.0073996 -0.0179092 -0.0171931 
480 1 68.9316 23.3516 -11.8853 0.000109728 -0.00419181 -0.0254 
489 1 72.307 21.8103 -11.8116 -0.0151879 -0.0277643 0.00692955 
486 1 73.3865 21.0568 -11.6086 0.00775594 0.0177921 -0.019225 
370 1 79.5056 34.2823 8.06694 -0.00931924 -0.0104478 0.0210437 
391 2 81.321 33.896 9.24771 -0.0175481 0.0471614 0.0308178 
497 2 66.8728 22.0164 -11.3046 -0.0363011 0.0103542 -0.0863991 
390 2 74.3256 35.847 7.10058 -0.0168392 -0.0226415 0.0599621 
175 2 73.5626 35.4508 1.81818 0.0753884 -0.0351272 0.0378781 
156 1 75.7859 33.6937 1.70439 0.0270563 0.0232069 0.0025082 
166 1 77.9201 32.7735 0.901007 0.0322171 -0.000534338 -0.0331096 
155 1 78.0036 34.1467 0.435827 0.00365818 0.0162999 0.00670139 
168 1 76.9079 32.6381 2.0551 -0.0160328 0.0123625 0.00236917 
149 1 77.1967 35.3617 0.87728 0.0131483 0.00552622 -0.00380048 
150 1 75.8757 35.1825 1.52175 0.0150512 -0.0038955 -0.0126475 