LAMMPS (5 Jun 2019)
Reading data file ...
  orthogonal box = (-12 -12 -12) to (12 12 12)
  2 by 2 by 4 MPI processor grid
  reading atoms ...
  36 atoms
  read_data CPU = 0.00190134 secs
Replicating atoms ...
  orthogonal box = (-12 -12 -12) to (84 36 36)
  4 by 2 by 2 MPI processor grid
  576 atoms
  replicate CPU = 0.000818496 secs
Neighbor list info ...
  update every 1 steps, delay 10 steps, check yes
  max neighbors/atom: 2000, page size: 100000
  master list distance cutoff = 12
  ghost atom cutoff = 12
  binsize = 6, bins = 16 8 8
  2 neighbor lists, perpetual/occasional/extra = 2 0 0
  (1) pair reax/c, perpetual
      attributes: half, newton off, ghost
      pair build: half/bin/newtoff/ghost
      stencil: half/ghost/bin/3d/newtoff
      bin: standard
  (2) fix qeq/reax, perpetual, copy from (1)
      attributes: half, newton off, ghost
      pair build: copy
      stencil: none
      bin: none
Setting up Verlet run ...
  Unit style    : real
  Current step  : 0
  Time step     : 0.1
Per MPI rank memory allocation (min/avg/max) = 15.68 | 15.68 | 15.68 Mbytes
Step Temp PotEng KinEng TotEng Press 
       0         2000   -75085.961    3427.9316    -71658.03    1549.3913 
    1000     1044.077   -73457.053    1789.5123   -71667.541    89.829131 
Loop time of 4.99869 on 16 procs for 1000 steps with 576 atoms

Performance: 1.728 ns/day, 13.885 hours/ns, 200.053 timesteps/s
100.0% CPU use with 16 MPI tasks x no OpenMP threads

MPI task timing breakdown:
Section |  min time  |  avg time  |  max time  |%varavg| %total
---------------------------------------------------------------
Pair    | 1.6438     | 1.6564     | 1.678      |   0.7 | 33.14
Neigh   | 0.0007474  | 0.00076826 | 0.0008057  |   0.0 |  0.02
Comm    | 0.14585    | 0.17832    | 0.20088    |   3.3 |  3.57
Output  | 0.00011174 | 0.0001403  | 0.00018957 |   0.0 |  0.00
Modify  | 3.1189     | 3.12       | 3.1212     |   0.0 | 62.42
Other   |            | 0.04303    |            |       |  0.86

Nlocal:    36 ave 36 max 36 min
Histogram: 16 0 0 0 0 0 0 0 0 0
Nghost:    252 ave 255 max 249 min
Histogram: 4 0 0 4 0 0 4 0 0 4
Neighs:    630 ave 630 max 630 min
Histogram: 16 0 0 0 0 0 0 0 0 0

Total # of neighbors = 10080
Ave neighs/atom = 17.5
Neighbor list builds = 5
Dangerous builds = 0
Setting up Verlet run ...
  Unit style    : real
  Current step  : 1000
  Time step     : 0.1
Per MPI rank memory allocation (min/avg/max) = 15.68 | 15.68 | 15.68 Mbytes
Step Temp PotEng KinEng TotEng Press 
    1000     1044.077   -73457.053    1789.5123   -71667.541    89.829171 
    2000     3186.405   -70282.194    5461.3891   -64820.805    223.92299 
    3000    3476.2423   -70305.836    5958.1603   -64347.675   -364.43297 
    4000    3409.9125    -70614.71    5844.4733   -64770.236   -117.40105 
    5000    3431.0125   -70278.002    5880.6381   -64397.364    116.05196 
    6000    3628.3435   -70284.441    6218.8566   -64065.585   -153.20724 
    7000      3518.49   -70610.576    6030.5715   -64580.004    1301.8306 
    8000    3553.9424   -70449.655    6091.3357    -64358.32   -219.74557 
    9000    3609.8735   -70063.689    6187.1996   -63876.489    593.68072 
   10000    3508.0955   -70177.062    6012.7556   -64164.307   -343.73506 
   11000    3460.3091   -70360.939    5930.8513   -64430.088    514.68126 
   12000    3458.9322   -70431.108    5928.4914   -64502.617   -486.20501 
   13000    3504.2491   -70386.986     6006.163   -64380.823    582.26504 
   14000    3309.0769   -70471.792    5671.6445   -64800.148    -427.2002 
   15000    3627.1786   -70599.851      6216.86   -64382.991    92.097559 
   16000    3543.9716   -70371.413    6074.2461   -64297.167    543.63125 
   17000    3412.4632   -70459.696    5848.8452   -64610.851    460.15418 
   18000    3361.8216   -70609.382    5762.0472   -64847.335    154.06838 
   19000    3870.0838   -70218.194    6633.1912   -63585.003    759.00777 
   20000    3598.8834   -70377.955    6168.3629   -64209.592    357.34292 
   21000    3501.3866   -70388.093    6001.2568   -64386.836    21.426988 
   22000    3569.7097   -70671.929    6118.3602   -64553.568    198.14192 
   23000    3577.8176       -70234     6132.257   -64101.743    472.65568 
   24000    3390.9253   -70241.958      5811.93   -64430.028    129.14114 
   25000    3637.5115   -70354.872    6234.5702   -64120.302    104.68429 
   26000    3552.6067   -69894.878    6089.0464   -63805.832    999.91675 
   27000    3389.9802   -70095.235    5810.3101   -64284.925    159.67427 
   28000    3266.5759   -70111.373    5598.7994   -64512.573    432.04795 
   29000    3660.8684   -70290.504    6274.6032   -64015.901    490.59798 
   30000    3630.8738   -70281.181    6223.1934   -64057.987   -337.13432 
   31000    3489.9403    -70157.29    5981.6382   -64175.651   -41.624849 
   32000    3659.3539   -70296.756    6272.0074   -64024.749    941.88419 
   33000    3453.7253   -69832.537     5919.567    -63912.97    471.67364 
   34000    3453.8554   -70125.013      5919.79   -64205.223     264.3318 
   35000    3582.0519   -69938.438    6139.5144   -63798.923   -213.62333 
   36000    3489.5069   -70054.733    5980.8954   -64073.837   -167.24382 
   37000    3576.2725    -69997.72    6129.6086   -63868.111   -346.59147 
   38000    3413.7124   -70313.192    5850.9862   -64462.206   -273.58453 
   39000    3516.3554   -70173.143    6026.9128    -64146.23    119.30756 
   40000    3669.8798   -69859.112    6290.0484   -63569.063    61.128511 
   41000    3393.6285   -70113.966    5816.5631   -64297.402   -50.680866 
   42000    3591.8855    -70188.16    6156.3689   -64031.791    565.11607 
   43000    3545.6891   -69819.579    6077.1899   -63742.389    88.259571 
   44000    3666.8105   -69856.732    6284.7877   -63571.944   -243.30553 
   45000    3510.8374   -70151.006    6017.4552   -64133.551   -87.698713 
   46000     3665.309   -70445.618    6282.2142   -64163.404    411.17633 
   47000    3676.9352   -69823.029     6302.141   -63520.888    187.71245 
   48000    3436.7835   -70012.184    5890.5293   -64121.654    194.84895 
   49000    3422.8463   -70187.788    5866.6414   -64321.147    288.35155 
   50000    3601.8761    -70234.81    6173.4924   -64061.318    177.73059 
   51000    3632.6118   -70244.509    6226.1723   -64018.337    536.90265 
   52000    3526.2843   -70114.585    6043.9305   -64070.655     434.0479 
   53000    3623.2281    -69745.81    6210.0889   -63535.721    99.381774 
   54000    3370.9685   -70028.245    5777.7246   -64250.521    396.45063 
   55000    3517.3213   -69958.893    6028.5683   -63930.325    304.50065 
   56000    3565.8034   -69738.029     6111.665   -63626.364    281.64604 
   57000    3510.6354   -69906.514    6017.1089   -63889.405    112.47876 
   58000    3619.5217     -70021.5    6203.7364   -63817.764     94.63296 
   59000    3366.3349   -69786.348    5769.7828   -64016.565   -352.94052 
   60000    3360.6251    -70040.79    5759.9964   -64280.794     330.3418 
   61000     3541.022   -70031.663    6069.1906   -63962.473   -198.57816 
   62000    3554.2171   -69962.053    6091.8066   -63870.247   -79.253513 
   63000    3513.8639   -69952.698    6022.6425   -63930.056     308.4956 
   64000     3442.868   -70165.156    5900.9579   -64264.198    654.90432 
   65000    3416.5249   -69462.646    5855.8068    -63606.84    422.78573 
   66000    3557.1372   -70112.835    6096.8114   -64016.024    431.76307 
   67000    3531.5116   -69895.761    6052.8901   -63842.871    504.74466 
   68000    3423.9274   -69883.256    5868.4944   -64014.762    310.11312 
   69000    3435.7125    -69810.63    5888.6937   -63921.936   -607.44508 
   70000    3476.4726   -69868.788    5958.5551   -63910.233   -133.85765 
   71000    3674.7411   -69697.671    6298.3804   -63399.291   -22.250342 
   72000    3657.9368   -69651.457    6269.5785   -63381.879    198.16388 
   73000    3488.4168    -70060.38     5979.027   -64081.353   -37.686316 
   74000    3443.1821   -69468.077    5901.4963   -63566.581   -915.61541 
   75000    3460.5643   -70156.163    5931.2888   -64224.874    -100.5776 
   76000    3443.9915   -69790.448    5902.8835   -63887.564    502.73414 
   77000     3591.195   -69975.281    6155.1854   -63820.095    248.83369 
   78000    3788.5257   -69776.994    6493.4033   -63283.591   -279.03954 
   79000    3468.8072    -69956.52    5945.4168   -64011.103     592.8366 
   80000    3309.0282   -69802.566    5671.5612   -64131.005   -198.93576 
   81000    3416.1543   -69688.038    5855.1716   -63832.866    569.44334 
   82000    3617.4089   -69927.403    6200.1151   -63727.288   -177.78136 
   83000    3471.6724   -69996.282    5950.3277   -64045.955    689.89498 
   84000    3734.4228   -69695.053    6400.6729    -63294.38   -412.54086 
   85000    3502.7134   -69745.127    6003.5309   -63741.596    3.1398246 
   86000    3330.5449    -69703.02      5708.44    -63994.58    354.47508 
   87000    3546.6014   -69516.714    6078.7535    -63437.96    163.22001 
   88000    3334.5869   -69731.713    5715.3678   -64016.345   -459.26531 
   89000    3507.9501   -69937.709    6012.5065   -63925.203     231.5105 
   90000     3500.357   -69799.003    5999.4921   -63799.511    820.02139 
   91000    3258.3545   -70010.705    5584.7081   -64425.997    485.10435 
   92000    3573.5082   -69858.163    6124.8708   -63733.292   -126.57711 
   93000    3381.9502   -69905.537     5796.547    -64108.99   -15.572699 
   94000    3417.1277   -69711.645      5856.84   -63854.805    408.58848 
   95000    3294.9589   -69740.525    5647.4468   -64093.078     290.0417 
   96000    3392.7152   -69879.503    5814.9977   -64064.505   -15.806512 
   97000    3402.7064   -70163.511    5832.1223   -64331.389    441.38435 
   98000    3443.1501   -70039.739    5901.4414   -64138.298    734.65021 
   99000    3512.4056   -69749.667    6020.1431   -63729.524   -269.71144 
  100000    3325.7323   -70207.486    5700.1913   -64507.295    441.90216 
  101000    3988.5034   -69789.809    6836.1583   -62953.651    453.37747 
  102000     3635.477   -69702.806    6231.0831   -63471.723   -398.07033 
  103000    3448.4117   -69889.336    5910.4597   -63978.876    236.26091 
  104000    3433.2385   -69909.186    5884.4534   -64024.733     204.7935 
  105000    3418.2306   -70304.421    5858.7302   -64445.691    228.67921 
  106000    3629.1367   -69815.457    6220.2161   -63595.241    225.16377 
  107000    3571.9173   -69340.541    6122.1441   -63218.397    411.34546 
  108000    3642.2699   -69537.449    6242.7259   -63294.723    678.31379 
  109000    3660.8965    -69368.26    6274.6513   -63093.609   -48.059781 
  110000    3835.7172   -69712.723     6574.288   -63138.435    377.16715 
  111000    3538.3756   -69677.439    6064.6547   -63612.785    145.35678 
  112000    3570.5224   -69544.835    6119.7533   -63425.081   -56.673733 
  113000     3467.471   -69478.271    5943.1266   -63535.144    208.27007 
  114000    3463.4242   -69518.566    5936.1906   -63582.375   -309.38653 
  115000    3468.5991   -69741.266    5945.0602   -63796.206    191.26063 
  116000    3556.7997   -69425.216    6096.2329   -63328.983    278.04021 
  117000    3678.6651   -69267.333    6305.1061   -62962.227   -480.50562 
  118000    3431.0296   -69854.853    5880.6673   -63974.185    441.48675 
  119000    3733.5264   -69381.049    6399.1365   -62981.912    175.82715 
  120000    3286.6718   -69153.674    5633.2431   -63520.431   -471.90014 
  121000    3541.6757   -69565.207    6070.3109   -63494.896    153.22489 
  122000    3669.6403   -69887.217    6289.6379   -63597.579   -1.9349204 
  123000    3552.8866   -69345.166     6089.526    -63255.64   -220.33366 
  124000    3457.3117   -69310.818    5925.7139   -63385.104    280.00026 
  125000    3542.9421   -69501.044    6072.4814   -63428.563    366.27184 
  126000    3630.5321   -69191.699    6222.6078   -62969.092    282.89199 
  127000    3584.0391   -69398.471    6142.9204   -63255.551     262.1828 
  128000    3545.3344   -69256.173    6076.5819   -63179.591    281.38987 
  129000    3580.6039    -69196.37    6137.0326   -63059.338   -323.16333 
  130000    3482.4968   -69620.577    5968.8803   -63651.697   -683.72014 
  131000    3506.1068   -69270.688     6009.347   -63261.341    234.12264 
  132000    3471.4549   -69260.813    5949.9549   -63310.858    79.506503 
  133000     3438.257   -69274.774    5893.0548   -63381.719   -427.42648 
  134000    3513.0302   -69469.526    6021.2135   -63448.313   -392.94888 
  135000    3549.3628   -69239.827    6083.4863   -63156.341   -92.043198 
  136000    3781.7348   -69295.722    6481.7641   -62813.958    232.85384 
  137000    3503.8821   -69473.055    6005.5341   -63467.521    239.25272 
  138000    3426.5162   -69413.895    5872.9315   -63540.963   -490.02092 
  139000    3673.5594    -69208.14     6296.355   -62911.785    563.95731 
  140000    3525.7059   -69386.896    6042.9392   -63343.957     91.01299 
  141000    3734.7015   -69130.594    6401.1505   -62729.443    767.90218 
  142000    3549.9618   -69697.213    6084.5131     -63612.7    394.42483 
  143000    3557.1798   -69122.963    6096.8844   -63026.079    192.83375 
  144000    3541.2613   -69395.637    6069.6007   -63326.036   -157.63493 
  145000    3410.0077   -69364.634    5844.6365   -63519.997   -275.57795 
  146000    3413.1462   -69254.502    5850.0157   -63404.486    590.80756 
  147000    3398.1628   -69446.654    5824.3347    -63622.32    -341.3399 
  148000    3505.2302   -69264.539    6007.8446   -63256.694    30.204798 
  149000    3549.4269   -69324.063    6083.5962   -63240.466   -724.99565 
  150000    3705.6281   -69231.727    6351.3198   -62880.408    584.15476 
  151000    3397.9904   -69160.765    5824.0392   -63336.725   -107.76538 
  152000    3562.9965   -69019.519    6106.8541   -62912.665   -21.533428 
  153000    3589.6396   -69178.815    6152.5194   -63026.295   -319.76325 
  154000    3499.3113   -69205.259    5997.6997   -63207.559   -150.97739 
  155000    3769.2007    -69241.18    6460.2811   -62780.898    518.34532 
  156000    3469.7499   -69236.109    5947.0326   -63289.077    368.17431 
  157000    3710.2811   -69059.429    6359.2948   -62700.134    -121.0143 
  158000     3343.727   -69225.116    5731.0336   -63494.082    398.50435 
  159000    3516.1044   -69527.706    6026.4827   -63501.223   -150.21328 
  160000    3430.2327   -69055.105    5879.3015   -63175.804    102.82346 
  161000    3510.7759   -69121.497    6017.3497   -63104.147    553.35649 
  162000    3452.7725   -69463.422    5917.9338   -63545.488   -219.35385 
  163000    3650.7323   -69145.783    6257.2303   -62888.553    150.00464 
  164000    3503.4483    -69256.11    6004.7905    -63251.32    696.66374 
  165000    3451.1493    -69133.18    5915.1518   -63218.028    283.46021 
  166000    3298.8541   -69436.038     5654.123   -63781.915   -289.37426 
  167000    3518.3405    -69606.28    6030.3152   -63575.965    285.24545 
  168000    3459.7071   -69245.568    5929.8195   -63315.749   -333.34325 
  169000    3403.0988   -69191.225    5832.7948    -63358.43    223.56028 
  170000    3659.2103   -69219.975    6271.7612   -62948.214   -216.10857 
  171000     3625.494   -69182.053    6213.9727    -62968.08   -486.63464 
  172000    3469.0178   -68960.266    5945.7778   -63014.488   -448.29529 
  173000    3452.1251   -69242.524    5916.8242     -63325.7   -214.61625 
  174000    3647.9503   -69255.268     6252.462   -63002.806    103.65758 
  175000    3361.0514   -69452.957    5760.7271   -63692.229   -44.038624 
  176000    3700.8318   -69344.757    6343.0991   -63001.658   -440.98687 
  177000    3280.4233   -68926.577    5622.5333   -63304.044    477.76626 
  178000    3410.2687    -68837.57    5845.0839   -62992.486    108.29098 
  179000    3434.7734   -69353.808     5887.084   -63466.724   -392.74293 
  180000    3529.8486   -69335.245    6050.0397   -63285.206    69.035063 
  181000    3481.3648   -69117.202    5966.9401   -63150.262    378.16897 
  182000    3525.4096    -69135.97    6042.4315   -63093.539   -264.79634 
  183000    3583.8186   -69057.032    6142.5424   -62914.489    72.934441 
  184000    3632.6236   -68903.481    6226.1925   -62677.289   -329.82673 
  185000     3376.683   -69010.025    5787.5191   -63222.506   -752.73927 
  186000    3642.7915    -68601.04      6243.62    -62357.42    688.74069 
  187000    3639.1246   -69052.199    6237.3349   -62814.864    435.13378 
  188000    3422.6239   -68742.728    5866.2602   -62876.468    79.845717 
  189000    3495.0995   -68983.638     5990.481   -62993.157    165.60605 
  190000     3802.422   -68903.464    6517.2212   -62386.243   -894.51474 
  191000    3376.1992   -69307.467    5786.6899   -63520.777    28.489325 
  192000    3422.7469   -68645.318    5866.4711   -62778.847   -286.03285 
  193000    3316.1713   -69096.818    5683.8041   -63413.014    767.00083 
  194000    3565.9865   -68861.746    6111.9788   -62749.768   -513.04213 
  195000    3633.1311   -69677.277    6227.0624   -63450.215    285.37093 
  196000     3515.303   -68791.804     6025.109   -62766.695   -103.10037 
  197000     3668.409   -68874.167    6287.5276    -62586.64    254.41641 
  198000    3721.9289   -69227.672    6379.2588   -62848.413   -171.17099 
  199000     3477.452   -69091.267    5960.2336   -63131.033   -688.24377 
  200000    3443.2118   -68775.621    5901.5471   -62874.074   -153.59576 
  201000    3664.3897    -69099.62    6280.6386   -62818.982    543.80816 
  202000    3447.7346   -69190.301     5909.299   -63281.002    322.01673 
  203000    3455.7755   -68769.938    5923.0809   -62846.857   -39.662018 
  204000    3460.9925   -69015.982    5932.0227   -63083.959    187.81724 
  205000    3439.3623   -68679.468    5894.9493   -62784.519    419.87188 
  206000    3629.7876   -68804.801    6221.3318   -62583.469    69.745107 
  207000     3422.451   -69021.766    5865.9639   -63155.802   -311.32915 
  208000    3330.9542   -68891.642    5709.1415   -63182.501    443.35858 
  209000    3779.7463    -69036.93    6478.3558   -62558.574     221.4005 
  210000    3550.9113   -69126.173    6086.1405   -63040.033   -330.98154 
  211000    3488.8281   -68958.099     5979.732   -62978.367   -817.92715 
  212000    3385.7507   -68788.829    5803.0608   -62985.768     640.0389 
  213000    3578.5546   -68795.005    6133.5201   -62661.485   -260.75124 
  214000     3498.509   -68812.072    5996.3247   -62815.747   -270.81093 
  215000    3302.6625   -68763.554    5660.6506   -63102.903     842.8871 
  216000    3556.6409   -68693.724    6095.9608   -62597.763    121.58181 
  217000    3562.6134   -68469.429    6106.1974   -62363.232    163.90654 
  218000    3445.7447   -68264.602    5905.8885   -62358.714    250.80251 
  219000    3373.3896   -68679.182    5781.8744   -62897.307    37.561502 
  220000    3561.2368   -68891.038    6103.8379     -62787.2   -103.73997 
  221000    3481.8884   -68630.867    5967.8376   -62663.029    662.89454 
  222000    3598.1479   -68648.735    6167.1024   -62481.633   -487.98272 
  223000    3573.1788   -68439.894    6124.3062   -62315.587    174.05626 
  224000       3538.6   -68742.912    6065.0393   -62677.872   -281.38426 
  225000    3369.6597    -68659.34    5775.4814   -62883.858   -114.19737 
  226000    3633.0558   -68662.681    6226.9332   -62435.748   -389.32528 
  227000    3514.4392   -68471.504    6023.6285   -62447.875    43.708751 
  228000    3622.5057   -68293.544    6208.8508   -62084.693   -170.13855 
  229000    3389.6177   -68676.913    5809.6888   -62867.224   -290.51515 
  230000    3524.7205   -68443.298    6041.2502   -62402.048    85.817492 
  231000    3487.9521   -68523.408    5978.2306   -62545.177   -733.14483 
  232000    3490.3159   -68434.597    5982.2821   -62452.315    164.43963 
  233000    3556.3495   -68446.992    6095.4613    -62351.53   -238.53712 
  234000    3517.2952   -68457.342    6028.5236   -62428.819    178.61851 
  235000    3410.2924   -68414.598    5845.1244   -62569.473   -262.72754 
  236000    3372.8533   -68490.543    5780.9552   -62709.587   -311.08125 
  237000    3369.9028   -68507.878    5775.8981    -62731.98   -4.4261148 
  238000    3282.9136   -68249.187    5626.8016   -62622.386    295.70236 
  239000    3386.1531   -68310.184    5803.7505   -62506.434    59.192244 
  240000    3500.5049   -68413.381    5999.7456   -62413.636    154.06596 
  241000    3657.3836   -68713.404    6268.6303   -62444.774    82.646657 
  242000      3256.83   -68639.483    5582.0952   -63057.388    246.05648 
  243000    3495.0625   -68416.686    5990.4174   -62426.269    21.468591 
  244000     3519.469   -68543.939    6032.2495   -62511.689   -622.63584 
  245000    3729.4178   -68012.106    6392.0945   -61620.011   -193.54622 
  246000    3438.2789    -68517.82    5893.0924   -62624.728    -115.3235 
  247000    3581.8704   -68308.518    6139.2033   -62169.315    505.36528 
  248000    3525.1767   -68625.114    6042.0323   -62583.081   -454.69083 
  249000    3571.5884   -68850.971    6121.5803    -62729.39    86.972408 
  250000    3760.9981   -68357.959    6446.2221   -61911.736   -113.31727 
  251000    3502.5327   -68139.277    6003.2212   -62136.056   -591.68073 
  252000     3443.281   -68381.702    5901.6657   -62480.037    107.36153 
  253000     3510.985   -68282.657    6017.7082   -62264.949    23.694896 
  254000    3433.6231    -68220.96    5885.1125   -62335.848   -134.60571 
  255000    3424.4193   -68240.571    5869.3375   -62371.233    339.60828 
  256000    3396.1176   -68172.283    5820.8294   -62351.454     97.06761 
  257000    3542.7132   -68342.486    6072.0891   -62270.397    619.07796 
  258000    3519.0981   -68425.311    6031.6138   -62393.697    663.74076 
  259000    3496.5051   -68007.599    5992.8901   -62014.709   -248.85214 
  260000    3578.4488   -68453.718    6133.3388   -62320.379    604.87626 
  261000     3484.728    -68186.66    5972.7045   -62213.955    92.458547 
  262000    3497.1426   -68278.481    5993.9827   -62284.498    480.35159 
  263000    3099.7016   -68022.855    5312.7825   -62710.073    9.2812475 
  264000    3695.5027   -68276.047    6333.9652   -61942.082   -398.34317 
  265000     3573.181     -68360.4    6124.3099    -62236.09    54.814923 
  266000    3678.1086   -68329.649    6304.1523   -62025.497    683.24861 
[node20-85:22616] *** Process received signal ***
[node20-85:22616] Signal: Segmentation fault (11)
[node20-85:22616] Signal code: Invalid permissions (2)
[node20-85:22616] Failing at address: 0x7ff31b76c1b8
[node20-85:22616] [ 0] /lib64/libpthread.so.0(+0xf5d0)[0x7ff31bd405d0]
[node20-85:22616] [ 1] /usr/lib64/openmpi3/lib/openmpi/mca_btl_vader.so(+0x458c)[0x7ff30b7ea58c]
[node20-85:22616] [ 2] /usr/lib64/openmpi3/lib/libopen-pal.so.40(opal_progress+0x34)[0x7ff31b423114]
[node20-85:22616] [ 3] /usr/lib64/openmpi3/lib/libmpi.so.40(ompi_request_default_wait_all+0xfd)[0x7ff31c7b8e7d]
[node20-85:22616] [ 4] /usr/lib64/openmpi3/lib/libmpi.so.40(ompi_coll_base_allreduce_intra_recursivedoubling+0x41c)[0x7ff31c81047c]
[node20-85:22616] [ 5] /usr/lib64/openmpi3/lib/libmpi.so.40(PMPI_Allreduce+0x2e3)[0x7ff31c7cb1f3]
[node20-85:22616] [ 6] /home/common/orekhov.nd/_STUDENTS/bin/lmp_reaxc[0x57201e]
[node20-85:22616] [ 7] /home/common/orekhov.nd/_STUDENTS/bin/lmp_reaxc[0x572b8f]
[node20-85:22616] [ 8] /home/common/orekhov.nd/_STUDENTS/bin/lmp_reaxc[0x5738e9]
[node20-85:22616] [ 9] /home/common/orekhov.nd/_STUDENTS/bin/lmp_reaxc[0x4f5d82]
[node20-85:22616] [10] /home/common/orekhov.nd/_STUDENTS/bin/lmp_reaxc[0x5fa9fe]
[node20-85:22616] [11] /home/common/orekhov.nd/_STUDENTS/bin/lmp_reaxc[0x4d1b31]
[node20-85:22616] [12] /home/common/orekhov.nd/_STUDENTS/bin/lmp_reaxc[0x46e2b6]
[node20-85:22616] [13] /home/common/orekhov.nd/_STUDENTS/bin/lmp_reaxc[0x46c949]
[node20-85:22616] [14] /home/common/orekhov.nd/_STUDENTS/bin/lmp_reaxc[0x46d2e7]
[node20-85:22616] [15] /home/common/orekhov.nd/_STUDENTS/bin/lmp_reaxc[0x40d606]
[node20-85:22616] [16] /lib64/libc.so.6(__libc_start_main+0xf5)[0x7ff31b986495]
[node20-85:22616] [17] /home/common/orekhov.nd/_STUDENTS/bin/lmp_reaxc[0x40f91f]
[node20-85:22616] *** End of error message ***
-------------------------------------------------------
Primary job  terminated normally, but 1 process returned
a non-zero exit code. Per user-direction, the job has been aborted.
-------------------------------------------------------
--------------------------------------------------------------------------
mpirun noticed that process rank 2 with PID 22616 on node node20-85 exited on signal 11 (Segmentation fault).
--------------------------------------------------------------------------
